ATOMS
23  1.985697  5.996766  -0.225995 0.000614  -0.001785  -0.00132
7  1.465808  5.248419  1.610420 -0.012779  -0.051227  0.085016
7  2.290065  7.760927  0.765131 0.038638  0.095002  0.052017
7  0.372438  3.176203  0.943853 0.007654  0.014152  0.009406
7  2.405861  6.962218  3.064312 0.00486  0.013648  0.010753
6  0.927127  3.992390  1.833918 0.006054  0.033284  -0.054346
6  1.879640  5.765256  2.826772 0.010138  0.052743  -0.081144
6  2.574669  7.878644  2.116466 -0.034234  -0.081082  -0.035685
6  2.566406  8.977683  0.161527 -0.032043  -0.0712  -0.042302
6  1.018977  3.674618  3.252763 -0.01495  -0.005208  -0.075818
6  0.641667  2.543634  3.986040 -0.008033  -0.037696  0.052555
1  0.202166  1.663949  3.509623 0.004024  0.071404  -0.175245
6  0.878204  2.562204  5.360574 -0.023715  -0.104035  0.042252
6  1.433320  3.711168  5.999464 0.003285  0.012214  0.105739
6  1.825580  4.828382  5.261626 0.00556  -0.014805  0.08457
1  2.257216  5.700030  5.759513 0.031186  0.137989  -0.187493
6  1.617996  4.790990  3.878014 0.013789  0.04146  -0.036018
6  3.075879  9.217393  2.388993 -0.027591  -0.093083  0.016174
6  3.496999  9.844565  3.567916 0.020257  0.023041  0.068953
1  3.494779  9.301739  4.519615 -0.123262  -0.315491  -0.107958
6  3.921732  11.173875  3.498436 0.0522  0.105472  0.092321
6  3.916369  11.875861  2.249636 0.050106  0.126949  0.044055
6  3.486498  11.242629  1.080669 0.019505  0.068939  -0.014892
1  3.476086  11.773358  0.122230 -0.129322  -0.27136  -0.217333
6  3.070730  9.908012  1.160470 -0.027269  -0.029927  -0.091855
7  1.450745  7.175121  -1.814962 -0.011561  0.033523  -0.067932
7  0.622139  4.663640  -0.970547 0.026408  0.039451  0.019941
7  2.388096  9.310874  -1.112708 0.004809  0.014499  0.007775
7  0.351398  5.526158  -3.231816 0.008299  0.015155  0.009055
6  1.858376  8.484498  -2.008653 0.011959  -0.028373  0.07424
6  0.903995  6.712246  -3.000312 0.003098  -0.023995  0.039029
6  0.208646  4.598731  -2.291321 -0.021383  -0.009136  -0.05633
6  0.219105  3.499215  -0.336637 -0.018941  -0.053232  0.030148
6  1.584619  8.875924  -3.385107 0.010461  -0.007331  0.039902
6  1.782759  10.078136  -4.073627 0.004572  0.053357  -0.045136
1  2.215400  10.958064  -3.591448 0.0274  -0.071028  0.176083
6  1.379182  10.126250  -5.408379 0.000484  0.073689  -0.03583
6  0.822331  8.981485  -6.053533 -0.020164  -0.015171  -0.08746
6  0.594947  7.796587  -5.353363 -0.005671  0.020781  -0.044145
1  0.153503  6.930820  -5.853027 0.005367  -0.085578  0.119532
6  0.984047  7.759860  -4.009378 -0.012807  -0.056177  0.026438
6  -0.470694  3.330417  -2.524752 0.003251  0.014042  -0.01316
6  -1.069547  2.785403  -3.666610 -0.000162  -0.001579  0.002059
1  -1.082958  3.315281  -4.621989 0.012804  0.018276  0.013009
6  -1.656094  1.523548  -3.549287 0.000852  0.000954  0.001379
6  -1.643891  0.829769  -2.300442 -0.001488  -0.003896  0.001487
6  -1.054524  1.377833  -1.163614 -0.000107  4.3e-05  -0.00059
1  -1.047897  0.849814  -0.203942 0.007067  0.01093  0.005889
6  -0.461744  2.641113  -1.292885 0.004599  0.000228  0.015679
8  1.561543  11.289408  -6.130983 0.013711  -0.021683  0.030208
8  0.456576  9.066279  -7.384615 -0.001284  -0.011842  0.039131
8  -2.247387  0.943258  -4.633013 -0.000569  5.5e-05  -0.00209
8  0.524098  1.466313  6.127027 -0.003008  0.033705  -0.038864
8  1.625783  3.699191  7.367660 0.015732  0.017536  -0.044897
8  3.425625  5.408669  -0.561990 0.001217  -0.001182  -0.000768
8  -2.262316  -0.402848  -2.343578 9.6e-05  0.000911  -0.001182
8  4.359842  11.883565  4.581877 -0.027791  -0.047058  -0.064948
8  4.349973  13.171875  2.290160 -0.027196  -0.077808  -0.008398
1  0.881467  3.215060  7.771918 -0.114179  -0.042209  -0.334223
1  1.207540  1.342662  6.812001 0.113025  0.227645  -0.110654
1  -2.213160  -0.821066  -1.467846 0.00761  0.012775  0.004508
1  -2.592746  0.075313  -4.347532 0.005636  0.00264  0.015354
1  1.136216  9.585584  -7.853589 0.086504  0.018552  0.190224
1  0.813799  11.377801  -6.751482 -0.092628  -0.252742  0.113745
1  4.304140  13.535608  1.388759 0.008442  0.007032  0.030987
1  4.318527  11.302935  5.361665 -0.002386  0.008813  -0.029195
