ATOMS
23  1.985697  5.996766  -0.225995 0.040136  0.077844  0.045321
7  1.465808  5.248419  1.610420 0.009604  0.013678  -0.00288
7  2.290065  7.760927  0.765131 -0.061849  -0.156332  -0.087525
7  0.372438  3.176203  0.943853 -0.029322  -0.029641  0.004414
7  2.405861  6.962218  3.064312 -0.009017  -0.030528  -0.053759
6  0.927127  3.992390  1.833918 0.045413  -0.000187  -0.029761
6  1.879640  5.765256  2.826772 -0.046315  0.009955  0.017339
6  2.574669  7.878644  2.116466 -0.030679  -0.12699  -0.09915
6  2.566406  8.977683  0.161527 -0.033926  -0.15002  -0.056189
6  1.018977  3.674618  3.252763 0.090872  0.098145  0.025134
6  0.641667  2.543634  3.986040 0.015411  0.088698  -0.041692
1  0.202166  1.663949  3.509623 0.001906  0.180286  -0.199484
6  0.878204  2.562204  5.360574 -0.045253  -0.04525  -0.018285
6  1.433320  3.711168  5.999464 0.004274  -0.062733  -0.031424
6  1.825580  4.828382  5.261626 0.029723  -0.003022  0.085067
1  2.257216  5.700030  5.759513 -0.004807  -0.078755  0.246837
6  1.617996  4.790990  3.878014 0.014463  0.10774  0.07553
6  3.075879  9.217393  2.388993 -0.073087  -0.104946  -0.07877
6  3.496999  9.844565  3.567916 -0.012357  0.033899  -0.131198
1  3.494779  9.301739  4.519615 0.012617  0.021824  -0.135647
6  3.921732  11.173875  3.498436 0.032509  0.069535  0.030979
6  3.916369  11.875861  2.249636 0.03409  0.063612  0.041582
6  3.486498  11.242629  1.080669 -0.010753  -0.097248  0.097938
1  3.476086  11.773358  0.122230 0.01289  -0.111468  0.087476
6  3.070730  9.908012  1.160470 -0.075825  -0.12347  -0.044328
7  1.450745  7.175121  -1.814962 0.007855  0.007764  0.009016
7  0.622139  4.663640  -0.970547 -0.086114  -0.125319  -0.070124
7  2.388096  9.310874  -1.112708 -0.006888  -0.061256  0.000738
7  0.351398  5.526158  -3.231816 -0.027108  -0.012342  -0.029668
6  1.858376  8.484498  -2.008653 -0.044978  0.021846  -0.003895
6  0.903995  6.712246  -3.000312 0.045156  -0.023403  0.010578
6  0.208646  4.598731  -2.291321 -0.090351  -0.087072  -0.06891
6  0.219105  3.499215  -0.336637 -0.088118  -0.107407  -0.039572
6  1.584619  8.875924  -3.385107 0.013772  0.123162  0.049714
6  1.782759  10.078136  -4.073627 0.030429  0.074632  -0.045838
1  2.215400  10.958064  -3.591448 -0.004858  0.173118  -0.1948
6  1.379182  10.126250  -5.408379 0.003994  -0.060444  -0.034829
6  0.822331  8.981485  -6.053533 -0.044422  -0.040591  -0.027298
6  0.594947  7.796587  -5.353363 0.014862  0.008264  0.09422
1  0.153503  6.930820  -5.853027 0.004887  -0.078745  0.25284
6  0.984047  7.759860  -4.009378 0.08877  0.075136  0.066453
6  -0.470694  3.330417  -2.524752 -0.049252  -0.101289  -0.076169
6  -1.069547  2.785403  -3.666610 -0.019586  0.031864  -0.118118
1  -1.082958  3.315281  -4.621989 -0.048639  0.028646  -0.117286
6  -1.656094  1.523548  -3.549287 0.034241  0.057918  0.027765
6  -1.643891  0.829769  -2.300442 0.031343  0.054501  0.036597
6  -1.054524  1.377833  -1.163614 -0.020571  -0.087609  0.091059
1  -1.047897  0.849814  -0.203942 -0.049848  -0.082387  0.092192
6  -0.461744  2.641113  -1.292885 -0.04521  -0.122893  -0.044746
8  1.561543  11.289408  -6.130983 -0.000137  -0.018509  0.062293
8  0.456576  9.066279  -7.384615 0.003123  0.039338  -0.054887
8  -2.247387  0.943258  -4.633013 0.052082  0.073282  0.054983
8  0.524098  1.466313  6.127027 0.003891  -0.028425  0.06464
8  1.625783  3.699191  7.367660 -0.001002  0.04299  -0.044676
8  3.425625  5.408669  -0.561990 -0.011576  -0.017195  -0.00998
8  -2.262316  -0.402848  -2.343578 0.056065  0.089196  0.034259
8  4.359842  11.883565  4.581877 0.039823  0.089293  0.06636
8  4.349973  13.171875  2.290160 0.03997  0.105264  0.042506
1  0.881467  3.215060  7.771918 0.041742  0.032981  0.019157
1  1.207540  1.342662  6.812001 0.040438  0.08177  0.049597
1  -2.213160  -0.821066  -1.467846 0.059333  0.104246  0.039012
1  -2.592746  0.075313  -4.347532 0.048214  0.064235  0.018029
1  1.136216  9.585584  -7.853589 0.044934  0.075194  0.043213
1  0.813799  11.377801  -6.751482 0.037329  0.037077  0.026998
1  4.304140  13.535608  1.388759 0.051093  0.115391  0.043337
1  4.318527  11.302935  5.361665 0.049936  0.093721  0.073271
