ATOMS
23  1.985697  5.996766  -0.225995 0.019446  -0.003242  -0.002427
7  1.465808  5.248419  1.610420 -0.016966  -0.038834  0.087566
7  2.290065  7.760927  0.765131 0.019624  0.070076  0.038286
7  0.372438  3.176203  0.943853 -0.02136  -0.094047  0.03004
7  2.405861  6.962218  3.064312 0.033059  0.016491  0.08799
6  0.927127  3.992390  1.833918 -0.029622  -0.062277  0.053542
6  1.879640  5.765256  2.826772 0.006308  -0.004053  0.088992
6  2.574669  7.878644  2.116466 0.017617  0.037081  0.064536
6  2.566406  8.977683  0.161527 0.016987  0.076522  -0.001739
6  1.018977  3.674618  3.252763 -0.004858  -0.032491  0.051127
6  0.641667  2.543634  3.986040 -0.019005  -0.048913  -0.01565
1  0.202166  1.663949  3.509623 -0.014485  -0.048731  -0.017833
6  0.878204  2.562204  5.360574 0.005537  0.011644  -0.038435
6  1.433320  3.711168  5.999464 -0.003616  0.019999  -0.034603
6  1.825580  4.828382  5.261626 0.018452  0.039412  0.04178
1  2.257216  5.700030  5.759513 0.001375  0.03831  0.056187
6  1.617996  4.790990  3.878014 0.008582  -0.018373  0.062125
6  3.075879  9.217393  2.388993 0.022125  0.035631  0.029762
6  3.496999  9.844565  3.567916 0.003466  -0.01362  0.044675
1  3.494779  9.301739  4.519615 -0.001094  -0.012233  0.044442
6  3.921732  11.173875  3.498436 -0.012776  -0.028231  -0.013793
6  3.916369  11.875861  2.249636 -0.011941  -0.026227  -0.015081
6  3.486498  11.242629  1.080669 0.004417  0.032777  -0.033269
1  3.476086  11.773358  0.122230 0.000733  0.035013  -0.031013
6  3.070730  9.908012  1.160470 0.02176  0.045961  0.014601
7  1.450745  7.175121  -1.814962 -0.018556  0.051984  -0.077906
7  0.622139  4.663640  -0.970547 -0.058676  -0.068158  -0.037436
7  2.388096  9.310874  -1.112708 0.032539  0.082946  -0.03172
7  0.351398  5.526158  -3.231816 -0.021841  -0.023144  -0.095724
6  1.858376  8.484498  -2.008653 0.006046  0.071123  -0.0476
6  0.903995  6.712246  -3.000312 -0.030495  0.013222  -0.081357
6  0.208646  4.598731  -2.291321 -0.044395  -0.036656  -0.067291
6  0.219105  3.499215  -0.336637 -0.044807  -0.078739  0.003344
6  1.584619  8.875924  -3.385107 0.008722  0.043327  -0.04521
6  1.782759  10.078136  -4.073627 0.018568  0.055787  0.013381
1  2.215400  10.958064  -3.591448 0.001918  0.067876  0.003939
6  1.379182  10.126250  -5.408379 -0.00356  -0.019267  0.035906
6  0.822331  8.981485  -6.053533 0.005452  -0.025562  0.028148
6  0.594947  7.796587  -5.353363 -0.017774  -0.036535  -0.033164
1  0.153503  6.930820  -5.853027 -0.011876  -0.039628  -0.030942
6  0.984047  7.759860  -4.009378 -0.005223  0.028395  -0.05329
6  -0.470694  3.330417  -2.524752 -0.028801  -0.042884  -0.0379
6  -1.069547  2.785403  -3.666610 -0.007737  0.016598  -0.056106
1  -1.082958  3.315281  -4.621989 -0.014875  0.011576  -0.057498
6  -1.656094  1.523548  -3.549287 0.019717  0.031091  0.016831
6  -1.643891  0.829769  -2.300442 0.018362  0.028581  0.017975
6  -1.054524  1.377833  -1.163614 -0.008166  -0.040367  0.041898
1  -1.047897  0.849814  -0.203942 -0.012546  -0.038878  0.041611
6  -0.461744  2.641113  -1.292885 -0.028913  -0.055491  -0.018654
8  1.561543  11.289408  -6.130983 0.013938  -0.041604  0.036509
8  0.456576  9.066279  -7.384615 -0.004243  -0.01134  0.04778
8  -2.247387  0.943258  -4.633013 0.028592  0.039539  0.032357
8  0.524098  1.466313  6.127027 -0.00388  0.03742  -0.03576
8  1.625783  3.699191  7.367660 0.013241  0.011143  -0.054319
8  3.425625  5.408669  -0.561990 0.016819  -0.00802  -0.004397
8  -2.262316  -0.402848  -2.343578 0.028665  0.047706  0.017702
8  4.359842  11.883565  4.581877 -0.016409  -0.034734  -0.028727
8  4.349973  13.171875  2.290160 -0.016472  -0.041677  -0.016106
1  0.881467  3.215060  7.771918 -0.204187  0.379583  -0.012547
1  1.207540  1.342662  6.812001 0.210004  -0.208124  -0.29314
1  -2.213160  -0.821066  -1.467846 0.032592  0.054357  0.019522
1  -2.592746  0.075313  -4.347532 0.023945  0.036479  0.015061
1  1.136216  9.585584  -7.853589 0.213279  -0.367291  -0.031715
1  0.813799  11.377801  -6.751482 -0.213325  0.191665  0.342951
1  4.304140  13.535608  1.388759 -0.020252  -0.046917  -0.017033
1  4.318527  11.302935  5.361665 -0.018778  -0.035089  -0.030294
