ATOMS
23  1.985697  5.996766  -0.225995 -0.000426  0.000274  -0.002821
7  1.465808  5.248419  1.610420 -0.155824  0.049847  0.027842
7  2.290065  7.760927  0.765131 -0.090189  0.027902  0.001918
7  0.372438  3.176203  0.943853 -0.038045  -0.006679  -0.037664
7  2.405861  6.962218  3.064312 -0.079376  0.06596  0.031794
6  0.927127  3.992390  1.833918 0.199864  -0.126131  -0.04692
6  1.879640  5.765256  2.826772 0.209093  -0.071517  -0.015327
6  2.574669  7.878644  2.116466 0.076719  -0.001342  -0.007489
6  2.566406  8.977683  0.161527 0.164143  -0.070635  -0.063863
6  1.018977  3.674618  3.252763 -0.131804  0.053043  0.019549
6  0.641667  2.543634  3.986040 -0.015822  -0.006873  -0.003439
1  0.202166  1.663949  3.509623 0.235548  -0.112343  -0.041028
6  0.878204  2.562204  5.360574 0.004612  -0.005089  -0.008784
6  1.433320  3.711168  5.999464 0.035749  -0.016735  -0.005883
6  1.825580  4.828382  5.261626 -0.029072  0.022986  0.026653
1  2.257216  5.700030  5.759513 0.076252  -0.035719  0.038835
6  1.617996  4.790990  3.878014 0.000524  0.01221  0.013953
6  3.075879  9.217393  2.388993 0.121168  -0.028929  0.002833
6  3.496999  9.844565  3.567916 -0.03025  -0.005213  0.059915
1  3.494779  9.301739  4.519615 -0.106669  0.0268  0.078515
6  3.921732  11.173875  3.498436 0.03208  -0.024261  -0.001895
6  3.916369  11.875861  2.249636 -0.008308  0.009822  -0.00739
6  3.486498  11.242629  1.080669 -0.00097  -0.006413  -0.010826
1  3.476086  11.773358  0.122230 0.308097  -0.122044  -0.078933
6  3.070730  9.908012  1.160470 -0.191969  0.049544  0.033474
7  1.450745  7.175121  -1.814962 0.144088  -0.053078  -0.053604
7  0.622139  4.663640  -0.970547 0.085917  -0.023263  -0.03961
7  2.388096  9.310874  -1.112708 0.000667  -0.023119  -0.043046
7  0.351398  5.526158  -3.231816 0.105011  -0.035957  0.000307
6  1.858376  8.484498  -2.008653 -0.227182  0.068138  0.036721
6  0.903995  6.712246  -3.000312 -0.191816  0.073622  0.079468
6  0.208646  4.598731  -2.291321 -0.071886  0.039301  0.033687
6  0.219105  3.499215  -0.336637 -0.14986  0.084453  0.013534
6  1.584619  8.875924  -3.385107 0.131119  -0.050969  -0.049034
6  1.782759  10.078136  -4.073627 0.000264  -0.020402  -0.01288
1  2.215400  10.958064  -3.591448 -0.253623  0.061999  0.062049
6  1.379182  10.126250  -5.408379 -0.01211  -0.005399  -0.000659
6  0.822331  8.981485  -6.053533 -0.029406  0.032515  0.006259
6  0.594947  7.796587  -5.353363 0.060912  0.031788  0.020496
1  0.153503  6.930820  -5.853027 -0.046283  0.070338  0.050473
6  0.984047  7.759860  -4.009378 0.009212  0.004467  0.018735
6  -0.470694  3.330417  -2.524752 -0.096213  0.046475  0.045371
6  -1.069547  2.785403  -3.666610 0.042899  -0.020788  0.01413
1  -1.082958  3.315281  -4.621989 0.12041  -0.036764  0.00452
6  -1.656094  1.523548  -3.549287 -0.045093  0.019153  0.011053
6  -1.643891  0.829769  -2.300442 0.016324  -0.007235  -0.008673
6  -1.054524  1.377833  -1.163614 -0.005229  -0.00092  -0.000659
1  -1.047897  0.849814  -0.203942 -0.300432  0.140416  0.078996
6  -0.461744  2.641113  -1.292885 0.162916  -0.084573  -0.04601
8  1.561543  11.289408  -6.130983 0.000385  -0.026706  0.007497
8  0.456576  9.066279  -7.384615 0.003435  -0.002075  -0.003017
8  -2.247387  0.943258  -4.633013 0.000181  -0.006388  -0.004328
8  0.524098  1.466313  6.127027 -0.003843  0.004692  0.000564
8  1.625783  3.699191  7.367660 -0.001858  0.00781  -0.002273
8  3.425625  5.408669  -0.561990 -0.001899  8.4e-05  -0.008523
8  -2.262316  -0.402848  -2.343578 0.007143  0.002167  -0.001651
8  4.359842  11.883565  4.581877 -0.002385  -0.007884  -0.00444
8  4.349973  13.171875  2.290160 0.000736  0.027831  0.000407
1  0.881467  3.215060  7.771918 -0.006966  0.002461  -0.017375
1  1.207540  1.342662  6.812001 -0.011762  0.000992  0.007569
1  -2.213160  -0.821066  -1.467846 -0.018001  0.017278  0.006951
1  -2.592746  0.075313  -4.347532 -0.009807  0.000305  0.004673
1  1.136216  9.585584  -7.853589 0.006562  0.006301  0.009799
1  0.813799  11.377801  -6.751482 0.007081  -0.005339  0.003406
1  4.304140  13.535608  1.388759 0.039121  0.016624  -0.00657
1  4.318527  11.302935  5.361665 -0.027192  0.010235  0.007224
