ATOMS
23  1.985697  5.996766  -0.225995 -5.1e-05  0.002387  -0.00405
7  1.465808  5.248419  1.610420 -0.002952  -0.008077  0.018912
7  2.290065  7.760927  0.765131 0.001278  -0.001598  0.012317
7  0.372438  3.176203  0.943853 0.003631  0.018853  -0.003997
7  2.405861  6.962218  3.064312 -0.002483  -0.006781  -0.018737
6  0.927127  3.992390  1.833918 0.022142  -0.00884  0.003717
6  1.879640  5.765256  2.826772 -0.021107  0.001038  0.007697
6  2.574669  7.878644  2.116466 0.008395  0.011632  0.011077
6  2.566406  8.977683  0.161527 -0.00617  -0.011471  -0.002374
6  1.018977  3.674618  3.252763 -0.027035  0.013474  0.006329
6  0.641667  2.543634  3.986040 0.081179  -0.023114  -0.01692
1  0.202166  1.663949  3.509623 -0.465927  0.215771  0.046762
6  0.878204  2.562204  5.360574 -0.020886  0.009553  0.00406
6  1.433320  3.711168  5.999464 0.021719  -0.00927  -0.002971
6  1.825580  4.828382  5.261626 -0.080177  0.032425  -0.000419
1  2.257216  5.700030  5.759513 0.472879  -0.189573  -0.091116
6  1.617996  4.790990  3.878014 0.025658  -0.015866  -0.003604
6  3.075879  9.217393  2.388993 0.001135  0.013152  -0.002268
6  3.496999  9.844565  3.567916 -0.000959  -0.003018  0.002579
1  3.494779  9.301739  4.519615 -0.002155  -0.024427  -0.00988
6  3.921732  11.173875  3.498436 -0.000524  -0.003894  0.003091
6  3.916369  11.875861  2.249636 3.3e-05  -0.000496  0.001847
6  3.486498  11.242629  1.080669 -0.002429  -0.010104  0.002262
1  3.476086  11.773358  0.122230 -0.008042  -0.005115  0.004954
6  3.070730  9.908012  1.160470 -0.002848  -0.009399  -0.011968
7  1.450745  7.175121  -1.814962 0.004559  -0.019466  0.028808
7  0.622139  4.663640  -0.970547 -0.003552  -0.00944  0.00774
7  2.388096  9.310874  -1.112708 0.003366  0.02126  -0.002569
7  0.351398  5.526158  -3.231816 -0.005304  -0.007607  -0.018005
6  1.858376  8.484498  -2.008653 0.020435  -0.010892  0.009098
6  0.903995  6.712246  -3.000312 -0.017399  -0.003095  0.014253
6  0.208646  4.598731  -2.291321 0.007595  0.005816  0.007521
6  0.219105  3.499215  -0.336637 -0.009133  -0.014591  -0.0032
6  1.584619  8.875924  -3.385107 -0.023091  0.015574  0.009492
6  1.782759  10.078136  -4.073627 0.07746  -0.005176  -0.035091
1  2.215400  10.958064  -3.591448 -0.451342  0.192455  0.078802
6  1.379182  10.126250  -5.408379 -0.022189  0.005214  0.003113
6  0.822331  8.981485  -6.053533 0.01589  -0.001999  -0.004935
6  0.594947  7.796587  -5.353363 -0.067448  0.02303  -0.005839
1  0.153503  6.930820  -5.853027 0.364295  -0.099866  -0.174588
6  0.984047  7.759860  -4.009378 0.018866  -0.010565  -0.012386
6  -0.470694  3.330417  -2.524752 0.003744  0.014189  0.001781
6  -1.069547  2.785403  -3.666610 0.005537  0.001721  0.008723
1  -1.082958  3.315281  -4.621989 -0.001672  0.004465  0.010276
6  -1.656094  1.523548  -3.549287 -0.001102  -0.000715  0.001161
6  -1.643891  0.829769  -2.300442 0.000594  -0.000832  0.005198
6  -1.054524  1.377833  -1.163614 0.002546  -4.6e-05  0.003616
1  -1.047897  0.849814  -0.203942 0.002982  0.025576  0.017488
6  -0.461744  2.641113  -1.292885 -0.002951  -0.003618  -0.011621
8  1.561543  11.289408  -6.130983 0.003054  -0.010517  0.003556
8  0.456576  9.066279  -7.384615 -0.000567  0.000647  0.01189
8  -2.247387  0.943258  -4.633013 -0.004288  -0.004663  -0.007574
8  0.524098  1.466313  6.127027 0.003608  -0.005636  -0.0002
8  1.625783  3.699191  7.367660 -0.004131  0.003416  0.003376
8  3.425625  5.408669  -0.561990 -1.1e-05  -0.000209  0.000388
8  -2.262316  -0.402848  -2.343578 0.001849  0.003407  -0.000346
8  4.359842  11.883565  4.581877 -0.001529  -0.00201  -0.003551
8  4.349973  13.171875  2.290160 0.003465  0.009544  0.000702
1  0.881467  3.215060  7.771918 -0.016948  0.002146  -0.021415
1  1.207540  1.342662  6.812001 0.018046  0.015817  -0.01059
1  -2.213160  -0.821066  -1.467846 -0.005088  -0.005762  -0.004523
1  -2.592746  0.075313  -4.347532 -0.002858  -0.004098  -0.003398
1  1.136216  9.585584  -7.853589 -0.016485  -0.004729  -0.016351
1  0.813799  11.377801  -6.751482 0.019262  0.022273  -0.010476
1  4.304140  13.535608  1.388759 -2.2e-05  0.004709  -0.001408
1  4.318527  11.302935  5.361665 0.003788  0.006122  0.002531
