ATOMS
23  1.985697  5.996766  -0.225995 0.00039  0.001402  -0.001957
7  1.465808  5.248419  1.610420 0.002018  -0.014831  0.056942
7  2.290065  7.760927  0.765131 -0.001927  0.059195  -0.110386
7  0.372438  3.176203  0.943853 -0.060351  -0.146609  0.048442
7  2.405861  6.962218  3.064312 0.035301  0.034358  0.121838
6  0.927127  3.992390  1.833918 -0.020769  -0.057966  -0.005184
6  1.879640  5.765256  2.826772 0.015689  0.024628  0.080968
6  2.574669  7.878644  2.116466 -0.053447  -0.109746  -0.096925
6  2.566406  8.977683  0.161527 0.051725  0.128492  0.052039
6  1.018977  3.674618  3.252763 -0.000254  0.043203  -0.061908
6  0.641667  2.543634  3.986040 0.019862  0.049529  -0.098842
1  0.202166  1.663949  3.509623 -0.056225  0.179038  -0.271383
6  0.878204  2.562204  5.360574 -0.011293  -0.027058  -0.035581
6  1.433320  3.711168  5.999464 0.015462  0.052864  0.003725
6  1.825580  4.828382  5.261626 0.003118  0.060461  -0.088092
1  2.257216  5.700030  5.759513 0.089974  0.142022  -0.303117
6  1.617996  4.790990  3.878014 0.001556  0.004437  -0.054069
6  3.075879  9.217393  2.388993 -0.035754  -0.103535  0.004131
6  3.496999  9.844565  3.567916 -0.008564  0.021102  -0.055561
1  3.494779  9.301739  4.519615 0.070351  0.105203  -0.005731
6  3.921732  11.173875  3.498436 0.00929  0.033648  -0.018429
6  3.916369  11.875861  2.249636 -0.007753  -0.004043  -0.027995
6  3.486498  11.242629  1.080669 0.014647  0.052289  -0.033395
1  3.476086  11.773358  0.122230 -0.04432  -0.006518  -0.063472
6  3.070730  9.908012  1.160470 0.041307  0.062414  0.095259
7  1.450745  7.175121  -1.814962 0.010704  -0.018623  0.055495
7  0.622139  4.663640  -0.970547 -0.007237  0.052917  -0.114996
7  2.388096  9.310874  -1.112708 -0.043286  -0.15604  0.04603
7  0.351398  5.526158  -3.231816 0.050126  0.028595  0.12204
6  1.858376  8.484498  -2.008653 -0.015913  -0.059947  -0.005803
6  0.903995  6.712246  -3.000312 0.026426  0.020523  0.079478
6  0.208646  4.598731  -2.291321 -0.078059  -0.104772  -0.094177
6  0.219105  3.499215  -0.336637 0.070452  0.117214  0.04577
6  1.584619  8.875924  -3.385107 -0.007991  0.047067  -0.058935
6  1.782759  10.078136  -4.073627 0.000534  0.058658  -0.097395
1  2.215400  10.958064  -3.591448 -0.088375  0.18946  -0.259984
6  1.379182  10.126250  -5.408379 -0.013208  -0.027729  -0.036698
6  0.822331  8.981485  -6.053533 0.013218  0.054134  0.004517
6  0.594947  7.796587  -5.353363 -0.015197  0.068842  -0.085205
1  0.153503  6.930820  -5.853027 0.059156  0.164084  -0.312637
6  0.984047  7.759860  -4.009378 -0.004908  0.008879  -0.055586
6  -0.470694  3.330417  -2.524752 -0.045656  -0.101106  0.008532
6  -1.069547  2.785403  -3.666610 -0.001034  0.025483  -0.052953
1  -1.082958  3.315281  -4.621989 0.059281  0.141111  0.011116
6  -1.656094  1.523548  -3.549287 0.010961  0.034555  -0.020654
6  -1.643891  0.829769  -2.300442 -0.006425  0.001507  -0.028248
6  -1.054524  1.377833  -1.163614 0.016242  0.05866  -0.033739
1  -1.047897  0.849814  -0.203942 -0.003297  -0.013271  -0.071633
6  -0.461744  2.641113  -1.292885 0.053704  0.058288  0.093031
8  1.561543  11.289408  -6.130983 -0.011312  -0.083666  0.061245
8  0.456576  9.066279  -7.384615 0.022373  -0.014508  0.084759
8  -2.247387  0.943258  -4.633013 0.024095  0.023169  0.044569
8  0.524098  1.466313  6.127027 -0.024136  -0.077088  0.063321
8  1.625783  3.699191  7.367660 0.010655  -0.009613  0.084889
8  3.425625  5.408669  -0.561990 0.00014  0.000845  -0.001222
8  -2.262316  -0.402848  -2.343578 -0.038605  -0.078542  0.001078
8  4.359842  11.883565  4.581877 0.018943  0.031135  0.049881
8  4.349973  13.171875  2.290160 -0.024749  -0.075837  -0.002049
1  0.881467  3.215060  7.771918 -0.026254  -0.047142  -0.020427
1  1.207540  1.342662  6.812001 0.015514  0.030631  0.047923
1  -2.213160  -0.821066  -1.467846 -0.002072  -0.020558  0.029197
1  -2.592746  0.075313  -4.347532 0.035931  0.028093  0.074929
1  1.136216  9.585584  -7.853589 -0.026961  -0.049179  -0.018628
1  0.813799  11.377801  -6.751482 0.017974  0.030841  0.047693
1  4.304140  13.535608  1.388759 -0.000804  -0.012203  0.025244
1  4.318527  11.302935  5.361665 -0.009707  -0.035699  0.001464
