ATOMS
23  1.985697  5.996766  -0.225995 -0.000217  -0.000834  0.000374
7  1.465808  5.248419  1.610420 0.015782  -0.006544  -0.004753
7  2.290065  7.760927  0.765131 0.002764  0.005854  0.00327
7  0.372438  3.176203  0.943853 0.003972  -0.006491  -0.001075
7  2.405861  6.962218  3.064312 0.005332  -0.003599  -0.001304
6  0.927127  3.992390  1.833918 -0.031154  0.015477  0.002899
6  1.879640  5.765256  2.826772 -0.032111  0.014158  0.005159
6  2.574669  7.878644  2.116466 -0.000502  0.000321  0.000903
6  2.566406  8.977683  0.161527 0.001606  0.004502  0.001043
6  1.018977  3.674618  3.252763 0.04501  -0.015728  -0.008213
6  0.641667  2.543634  3.986040 -0.110959  0.044053  0.01176
1  0.202166  1.663949  3.509623 0.623125  -0.260906  -0.102085
6  0.878204  2.562204  5.360574 0.041228  -0.017577  -0.011496
6  1.433320  3.711168  5.999464 0.042513  -0.022132  -0.003139
6  1.825580  4.828382  5.261626 -0.112172  0.043559  0.019311
1  2.257216  5.700030  5.759513 0.633035  -0.27724  -0.06424
6  1.617996  4.790990  3.878014 0.046026  -0.016844  -0.003215
6  3.075879  9.217393  2.388993 -0.00212  -0.002641  -0.001369
6  3.496999  9.844565  3.567916 -0.003354  -0.002464  -0.004478
1  3.494779  9.301739  4.519615 0.007482  -0.013522  -0.010805
6  3.921732  11.173875  3.498436 0.000325  -0.001052  0.000187
6  3.916369  11.875861  2.249636 0.000166  -7.8e-05  -0.001828
6  3.486498  11.242629  1.080669 -0.002179  -0.003224  -0.000953
1  3.476086  11.773358  0.122230 -0.001583  -0.014199  -0.00696
6  3.070730  9.908012  1.160470 0.000987  -0.001052  0.0016
7  1.450745  7.175121  -1.814962 -0.001821  0.004021  -0.005686
7  0.622139  4.663640  -0.970547 0.000987  0.000786  -0.001932
7  2.388096  9.310874  -1.112708 -0.001618  -0.003785  0.000678
7  0.351398  5.526158  -3.231816 0.001272  0.001147  0.003588
6  1.858376  8.484498  -2.008653 0.001239  0.000563  -0.003131
6  0.903995  6.712246  -3.000312 0.001406  0.001435  -0.00213
6  0.208646  4.598731  -2.291321 -0.002073  -0.001099  -0.001752
6  0.219105  3.499215  -0.336637 0.000145  0.002888  0.000387
6  1.584619  8.875924  -3.385107 -0.00237  -0.001044  0.000412
6  1.782759  10.078136  -4.073627 0.003569  -0.005205  0.001362
1  2.215400  10.958064  -3.591448 -0.022962  -0.002369  0.01983
6  1.379182  10.126250  -5.408379 -0.001238  0.001033  0.001687
6  0.822331  8.981485  -6.053533 -0.000987  -0.000708  0.000357
6  0.594947  7.796587  -5.353363 0.003544  -0.000931  0.003917
1  0.153503  6.930820  -5.853027 -0.010635  -0.00138  0.017339
6  0.984047  7.759860  -4.009378 -0.000503  0.000795  0.001743
6  -0.470694  3.330417  -2.524752 0.000562  -0.00327  -9.7e-05
6  -1.069547  2.785403  -3.666610 -0.003169  0.001474  8.9e-05
1  -1.082958  3.315281  -4.621989 0.017603  -0.00548  -0.004036
6  -1.656094  1.523548  -3.549287 0.001388  -0.000268  -0.000876
6  -1.643891  0.829769  -2.300442 0.000598  -8.4e-05  -0.000849
6  -1.054524  1.377833  -1.163614 -0.001472  0.001615  -1.2e-05
1  -1.047897  0.849814  -0.203942 0.01205  -0.007421  -0.005056
6  -0.461744  2.641113  -1.292885 0.000485  0.001088  0.002017
8  1.561543  11.289408  -6.130983 0.0005  0.001447  -0.001602
8  0.456576  9.066279  -7.384615 -0.000504  0.000257  -0.002351
8  -2.247387  0.943258  -4.633013 0.000224  0.00066  0.000994
8  0.524098  1.466313  6.127027 -0.005986  0.006664  0.005473
8  1.625783  3.699191  7.367660 -0.006177  0.008939  0.001582
8  3.425625  5.408669  -0.561990 -3e-05  -7e-05  0.000259
8  -2.262316  -0.402848  -2.343578 -0.000799  -0.000979  6.5e-05
8  4.359842  11.883565  4.581877 0.000933  0.002223  0.002677
8  4.349973  13.171875  2.290160 0.000401  0.001323  0.000312
1  0.881467  3.215060  7.771918 -0.030567  0.002975  -0.048272
1  1.207540  1.342662  6.812001 -0.036945  -0.039266  0.026746
1  -2.213160  -0.821066  -1.467846 0.001274  -0.000242  0.000346
1  -2.592746  0.075313  -4.347532 0.000297  0.000689  0.001192
1  1.136216  9.585584  -7.853589 0.00182  0.001505  0.002128
1  0.813799  11.377801  -6.751482 8.9e-05  -0.000584  -0.001527
1  4.304140  13.535608  1.388759 0.001739  0.004383  0.001473
1  4.318527  11.302935  5.361665 0.003119  0.002516  0.003113
