ATOMS
23  1.985697  5.996766  -0.225995 5e-06  -1e-06  -1e-06
7  1.465808  5.248419  1.610420 -0.00094  0.000439  0.000488
7  2.290065  7.760927  0.765131 -0.000172  0.000964  -0.001501
7  0.372438  3.176203  0.943853 -0.000559  -0.001171  0.000154
7  2.405861  6.962218  3.064312 -0.006173  0.002974  0.00206
6  0.927127  3.992390  1.833918 0.001093  -0.001153  -0.000375
6  1.879640  5.765256  2.826772 -0.002084  0.001474  0.00117
6  2.574669  7.878644  2.116466 0.035541  -0.013787  -0.007628
6  2.566406  8.977683  0.161527 -0.034877  0.013363  0.007951
6  1.018977  3.674618  3.252763 -0.002381  0.001199  1.4e-05
6  0.641667  2.543634  3.986040 0.000144  1.6e-05  -0.000619
1  0.202166  1.663949  3.509623 0.002655  -0.000516  -0.001979
6  0.878204  2.562204  5.360574 -0.000178  -0.000104  -0.000218
6  1.433320  3.711168  5.999464 0.000654  0.000203  -9.9e-05
6  1.825580  4.828382  5.261626 -0.00141  0.001159  -0.00024
1  2.257216  5.700030  5.759513 0.001214  0.000642  -0.001575
6  1.617996  4.790990  3.878014 0.004285  -0.001849  -0.000854
6  3.075879  9.217393  2.388993 -0.049245  0.014588  0.009518
6  3.496999  9.844565  3.567916 0.114336  -0.037282  -0.021582
1  3.494779  9.301739  4.519615 -0.652156  0.214564  0.120218
6  3.921732  11.173875  3.498436 -0.037695  0.013211  0.006598
6  3.916369  11.875861  2.249636 0.036921  -0.012122  -0.007868
6  3.486498  11.242629  1.080669 -0.11254  0.036797  0.021173
1  3.476086  11.773358  0.122230 0.642301  -0.208595  -0.122971
6  3.070730  9.908012  1.160470 0.04853  -0.015264  -0.007648
7  1.450745  7.175121  -1.814962 0.000966  -0.0006  -5.9e-05
7  0.622139  4.663640  -0.970547 3e-06  0.000307  -0.000759
7  2.388096  9.310874  -1.112708 0.005981  -0.003358  -0.001437
7  0.351398  5.526158  -3.231816 0.000601  0.000439  0.000995
6  1.858376  8.484498  -2.008653 0.002137  -0.001733  -0.000765
6  0.903995  6.712246  -3.000312 -0.001103  0.000891  0.000936
6  0.208646  4.598731  -2.291321 -0.000359  -0.000639  -0.000798
6  0.219105  3.499215  -0.336637 0.000102  0.001028  0.000199
6  1.584619  8.875924  -3.385107 -0.004275  0.001693  0.001061
6  1.782759  10.078136  -4.073627 0.0014  -0.000312  -0.001154
1  2.215400  10.958064  -3.591448 -0.001235  0.001098  -0.001402
6  1.379182  10.126250  -5.408379 -0.000642  -2.3e-05  -0.000216
6  0.822331  8.981485  -6.053533 0.000184  0.000285  -2.4e-05
6  0.594947  7.796587  -5.353363 -0.000146  0.00057  -0.000338
1  0.153503  6.930820  -5.853027 -0.00254  0.00205  -0.00076
6  0.984047  7.759860  -4.009378 0.002348  -0.000692  -0.001008
6  -0.470694  3.330417  -2.524752 -0.000183  -0.000686  0.000118
6  -1.069547  2.785403  -3.666610 0.000218  5.2e-05  -0.000242
1  -1.082958  3.315281  -4.621989 -0.000936  0.001693  0.000691
6  -1.656094  1.523548  -3.549287 2.9e-05  0.000269  -0.000117
6  -1.643891  0.829769  -2.300442 0.000194  -0.00011  -0.000293
6  -1.054524  1.377833  -1.163614 -0.000636  0.000571  5.5e-05
1  -1.047897  0.849814  -0.203942 0.004051  -0.002458  -0.001632
6  -0.461744  2.641113  -1.292885 0.000449  0.000196  0.000579
8  1.561543  11.289408  -6.130983 -0.000118  -0.000452  0.000347
8  0.456576  9.066279  -7.384615 0.000222  -8e-05  0.000572
8  -2.247387  0.943258  -4.633013 0.000156  0.000123  0.000279
8  0.524098  1.466313  6.127027 -0.000219  -0.000464  0.000371
8  1.625783  3.699191  7.367660 0.000115  -6e-05  0.000479
8  3.425625  5.408669  -0.561990 -0.0  5.8e-05  -0.000111
8  -2.262316  -0.402848  -2.343578 -0.000298  -0.000428  3.6e-05
8  4.359842  11.883565  4.581877 0.011784  -0.003376  -0.001476
8  4.349973  13.171875  2.290160 -0.011618  0.0028  0.002115
1  0.881467  3.215060  7.771918 -0.000467  -6.2e-05  -0.00052
1  1.207540  1.342662  6.812001 -0.0002  0.000123  0.000495
1  -2.213160  -0.821066  -1.467846 0.000111  -5e-05  0.000212
1  -2.592746  0.075313  -4.347532 0.000411  9.2e-05  0.000484
1  1.136216  9.585584  -7.853589 0.000156  -0.000477  9.1e-05
1  0.813799  11.377801  -6.751482 0.000437  0.000461  -0.000141
1  4.304140  13.535608  1.388759 0.026145  -0.007081  -0.003745
1  4.318527  11.302935  5.361665 -0.026167  0.006934  0.004245
