ATOMS
23  1.985697  5.996766  -0.225995 0.001697  0.001353  0.001464
7  1.465808  5.248419  1.610420 -0.005288  -0.02838  0.071371
7  2.290065  7.760927  0.765131 -0.048707  -0.123791  -0.068771
7  0.372438  3.176203  0.943853 -0.00777  -0.015527  0.003503
7  2.405861  6.962218  3.064312 -0.010207  -0.023723  -0.007941
6  0.927127  3.992390  1.833918 0.009832  0.047462  -0.074149
6  1.879640  5.765256  2.826772 -0.008416  -0.003525  -0.048418
6  2.574669  7.878644  2.116466 0.044804  0.0804  0.100852
6  2.566406  8.977683  0.161527 0.036439  0.120462  -0.009634
6  1.018977  3.674618  3.252763 0.00519  0.011068  0.004666
6  0.641667  2.543634  3.986040 -0.011336  -0.034325  0.023793
1  0.202166  1.663949  3.509623 -0.002321  0.024177  -0.100863
6  0.878204  2.562204  5.360574 0.00333  -0.022356  0.022766
6  1.433320  3.711168  5.999464 0.006913  0.011681  0.038434
6  1.825580  4.828382  5.261626 -0.003672  -0.011928  0.011744
1  2.257216  5.700030  5.759513 0.003178  0.018598  -0.044578
6  1.617996  4.790990  3.878014 0.008454  0.021227  -0.007021
6  3.075879  9.217393  2.388993 0.013271  0.035069  0.008811
6  3.496999  9.844565  3.567916 -0.015015  -0.017493  -0.050235
1  3.494779  9.301739  4.519615 0.069286  0.181455  0.052499
6  3.921732  11.173875  3.498436 -0.034548  -0.067803  -0.064456
6  3.916369  11.875861  2.249636 -0.029608  -0.073641  -0.028454
6  3.486498  11.242629  1.080669 -0.013477  -0.045045  0.005868
1  3.476086  11.773358  0.122230 0.085861  0.182944  0.139777
6  3.070730  9.908012  1.160470 0.012094  0.013721  0.03956
7  1.450745  7.175121  -1.814962 -0.007542  0.076198  -0.099252
7  0.622139  4.663640  -0.970547 -0.022105  -0.040532  -0.009869
7  2.388096  9.310874  -1.112708 -0.009412  -0.015602  -0.015837
7  0.351398  5.526158  -3.231816 -0.008704  -0.014672  -0.002622
6  1.858376  8.484498  -2.008653 -0.011407  -0.074096  0.04871
6  0.903995  6.712246  -3.000312 0.012481  -0.057574  0.1091
6  0.208646  4.598731  -2.291321 0.007825  0.03295  -0.02371
6  0.219105  3.499215  -0.336637 0.01631  0.031683  0.003472
6  1.584619  8.875924  -3.385107 0.02043  0.00553  0.058708
6  1.782759  10.078136  -4.073627 -0.004535  0.031475  -0.049411
1  2.215400  10.958064  -3.591448 0.019171  -0.086165  0.155122
6  1.379182  10.126250  -5.408379 0.011669  0.095254  -0.030609
6  0.822331  8.981485  -6.053533 -0.008868  -0.001762  -0.08746
6  0.594947  7.796587  -5.353363 -0.018766  0.015715  -0.081471
1  0.153503  6.930820  -5.853027 0.000103  -0.144701  0.163569
6  0.984047  7.759860  -4.009378 0.001549  -0.017135  0.027715
6  -0.470694  3.330417  -2.524752 0.048789  0.095613  0.007155
6  -1.069547  2.785403  -3.666610 -0.010229  -0.011301  -0.016277
1  -1.082958  3.315281  -4.621989 -0.005979  -0.000401  -0.019017
6  -1.656094  1.523548  -3.549287 -0.069141  -0.051158  -0.155282
6  -1.643891  0.829769  -2.300442 -0.030403  -0.02312  -0.067232
6  -1.054524  1.377833  -1.163614 -0.017675  -0.053044  0.030888
1  -1.047897  0.849814  -0.203942 0.178315  0.245514  0.201322
6  -0.461744  2.641113  -1.292885 0.017777  -0.001171  0.065038
8  1.561543  11.289408  -6.130983 0.007939  -0.032526  0.032612
8  0.456576  9.066279  -7.384615 -0.010758  -0.019871  0.038058
8  -2.247387  0.943258  -4.633013 0.041904  0.028689  0.098384
8  0.524098  1.466313  6.127027 -0.008557  0.005069  -0.015616
8  1.625783  3.699191  7.367660 0.000916  0.002814  -0.018983
8  3.425625  5.408669  -0.561990 0.000554  0.000423  0.0004
8  -2.262316  -0.402848  -2.343578 0.024253  0.029706  0.033623
8  4.359842  11.883565  4.581877 0.018783  0.03141  0.044557
8  4.349973  13.171875  2.290160 0.017622  0.048926  0.008169
1  0.881467  3.215060  7.771918 -0.017471  -0.011941  -0.066922
1  1.207540  1.342662  6.812001 0.081405  0.14536  -0.07354
1  -2.213160  -0.821066  -1.467846 -0.172904  -0.283428  -0.116716
1  -2.592746  0.075313  -4.347532 -0.080688  -0.023351  -0.245384
1  1.136216  9.585584  -7.853589 0.14914  0.02542  0.303183
1  0.813799  11.377801  -6.751482 -0.06906  -0.211267  0.091097
1  4.304140  13.535608  1.388759 -0.018176  -0.037646  -0.030572
1  4.318527  11.302935  5.361665 0.005979  0.002944  0.027224
