ATOMS
23  1.985697  5.996766  -0.225995 -0.000244  -0.000319  -0.000772
7  1.465808  5.248419  1.610420 -0.001701  0.002881  -0.018861
7  2.290065  7.760927  0.765131 -0.049901  -0.125252  -0.070858
7  0.372438  3.176203  0.943853 -0.02463  -0.050139  -0.006682
7  2.405861  6.962218  3.064312 -0.022721  -0.028749  -0.066672
6  0.927127  3.992390  1.833918 0.032128  0.028007  0.104711
6  1.879640  5.765256  2.826772 0.045308  0.106364  0.00772
6  2.574669  7.878644  2.116466 0.054764  0.081474  0.169782
6  2.566406  8.977683  0.161527 0.066273  0.193304  0.029367
6  1.018977  3.674618  3.252763 -0.023331  -0.037098  -0.046377
6  0.641667  2.543634  3.986040 0.013655  0.030762  0.00275
1  0.202166  1.663949  3.509623 0.015007  0.048397  -0.023316
6  0.878204  2.562204  5.360574 -0.007389  -0.008022  -0.007086
6  1.433320  3.711168  5.999464 -0.00757  -0.010492  -0.008181
6  1.825580  4.828382  5.261626 0.010561  0.016826  0.024013
1  2.257216  5.700030  5.759513 0.008438  0.013447  0.038638
6  1.617996  4.790990  3.878014 -0.019996  -0.044381  -0.004123
6  3.075879  9.217393  2.388993 -0.040516  -0.153831  0.054237
6  3.496999  9.844565  3.567916 0.005682  -0.005032  0.038817
1  3.494779  9.301739  4.519615 -0.079762  -0.20619  -0.06317
6  3.921732  11.173875  3.498436 0.036603  0.083388  0.048698
6  3.916369  11.875861  2.249636 0.041025  0.111019  0.024093
6  3.486498  11.242629  1.080669 0.003239  0.015644  -0.010689
1  3.476086  11.773358  0.122230 -0.074069  -0.157228  -0.118583
6  3.070730  9.908012  1.160470 -0.048533  -0.038463  -0.188059
7  1.450745  7.175121  -1.814962 -0.003919  0.018873  -0.03029
7  0.622139  4.663640  -0.970547 -0.047687  -0.075555  -0.029108
7  2.388096  9.310874  -1.112708 -0.018097  -0.048499  -0.005578
7  0.351398  5.526158  -3.231816 -0.031136  -0.040544  -0.048223
6  1.858376  8.484498  -2.008653 0.035496  -0.008185  0.131276
6  0.903995  6.712246  -3.000312 0.048246  0.084986  0.042353
6  0.208646  4.598731  -2.291321 0.037917  0.017063  0.093696
6  0.219105  3.499215  -0.336637 0.071303  0.143783  -0.00773
6  1.584619  8.875924  -3.385107 -0.042943  -0.027375  -0.108955
6  1.782759  10.078136  -4.073627 0.008637  0.013176  0.014122
1  2.215400  10.958064  -3.591448 -0.001079  0.055177  -0.05604
6  1.379182  10.126250  -5.408379 -0.018271  -0.072745  0.014539
6  0.822331  8.981485  -6.053533 0.010387  0.000756  0.059981
6  0.594947  7.796587  -5.353363 0.017281  0.014046  0.041828
1  0.153503  6.930820  -5.853027 0.016313  0.040742  0.012412
6  0.984047  7.759860  -4.009378 -0.006721  0.015364  -0.041889
6  -0.470694  3.330417  -2.524752 -0.019254  -0.069921  0.053692
6  -1.069547  2.785403  -3.666610 0.036827  0.050346  0.042731
1  -1.082958  3.315281  -4.621989 -0.138017  -0.221866  -0.101994
6  -1.656094  1.523548  -3.549287 0.007028  0.010431  0.006881
6  -1.643891  0.829769  -2.300442 0.048797  0.119718  -0.035352
6  -1.054524  1.377833  -1.163614 0.011113  0.016298  0.01142
1  -1.047897  0.849814  -0.203942 -0.048449  -0.071254  -0.048442
6  -0.461744  2.641113  -1.292885 -0.066867  -0.058328  -0.136134
8  1.561543  11.289408  -6.130983 0.003516  0.024987  -0.014593
8  0.456576  9.066279  -7.384615 0.003534  0.007914  -0.021074
8  -2.247387  0.943258  -4.633013 -0.004591  -0.024415  0.026119
8  0.524098  1.466313  6.127027 0.00545  0.004469  0.001562
8  1.625783  3.699191  7.367660 0.004678  0.003316  0.004801
8  3.425625  5.408669  -0.561990 -5.6e-05  0.002039  0.001932
8  -2.262316  -0.402848  -2.343578 -0.012595  -0.03905  0.022775
8  4.359842  11.883565  4.581877 -0.015599  -0.027398  -0.034729
8  4.349973  13.171875  2.290160 -0.015372  -0.05066  0.007194
1  0.881467  3.215060  7.771918 -0.020524  0.000332  -0.040867
1  1.207540  1.342662  6.812001 -0.031117  -0.041111  0.02679
1  -2.213160  -0.821066  -1.467846 -0.160469  -0.274253  -0.087974
1  -2.592746  0.075313  -4.347532 -0.166971  -0.092188  -0.431167
1  1.136216  9.585584  -7.853589 -0.068317  -0.003006  -0.128974
1  0.813799  11.377801  -6.751482 0.003835  0.038054  -0.013073
1  4.304140  13.535608  1.388759 -0.042211  -0.118727  -0.019288
1  4.318527  11.302935  5.361665 0.006801  0.021178  -0.001463
