ATOMS
23  1.985697  5.996766  -0.225995 1e-05  8e-06  2e-06
7  1.465808  5.248419  1.610420 -2e-06  1e-06  -1.3e-05
7  2.290065  7.760927  0.765131 -2e-06  -1.3e-05  -9e-06
7  0.372438  3.176203  0.943853 -1.5e-05  -1.2e-05  -4.1e-05
7  2.405861  6.962218  3.064312 -2e-06  -3e-06  -5e-06
6  0.927127  3.992390  1.833918 -2e-06  -4e-06  4e-06
6  1.879640  5.765256  2.826772 4e-06  6e-06  1e-05
6  2.574669  7.878644  2.116466 3e-06  2e-06  9e-06
6  2.566406  8.977683  0.161527 2e-06  6e-06  -1e-06
6  1.018977  3.674618  3.252763 0.0  5e-06  -1e-05
6  0.641667  2.543634  3.986040 -0.00015  -0.000298  -0.000166
1  0.202166  1.663949  3.509623 0.001703  0.00341  0.001853
6  0.878204  2.562204  5.360574 -1e-06  -1.3e-05  2e-05
6  1.433320  3.711168  5.999464 -2e-06  -1.2e-05  2.3e-05
6  1.825580  4.828382  5.261626 0.000173  0.000349  0.000195
1  2.257216  5.700030  5.759513 -0.001959  -0.00396  -0.002262
6  1.617996  4.790990  3.878014 -0.0  4e-06  -1.7e-05
6  3.075879  9.217393  2.388993 -1e-06  -2e-06  -1e-06
6  3.496999  9.844565  3.567916 -1e-06  -1.4e-05  2e-05
1  3.494779  9.301739  4.519615 1e-06  0.000135  -0.00023
6  3.921732  11.173875  3.498436 3e-06  4e-06  8e-06
6  3.916369  11.875861  2.249636 3e-06  1e-05  -1e-06
6  3.486498  11.242629  1.080669 -1e-06  1.1e-05  -2.5e-05
1  3.476086  11.773358  0.122230 4e-06  -0.000139  0.000258
6  3.070730  9.908012  1.160470 -1e-06  -1e-06  -1e-06
7  1.450745  7.175121  -1.814962 2e-06  4e-06  -2e-06
7  0.622139  4.663640  -0.970547 -0.000123  -0.000154  -0.00016
7  2.388096  9.310874  -1.112708 -5e-06  -8e-06  -8e-06
7  0.351398  5.526158  -3.231816 -4e-06  -0.000163  0.000217
6  1.858376  8.484498  -2.008653 9e-06  1.4e-05  1.1e-05
6  0.903995  6.712246  -3.000312 -3e-05  -6.3e-05  -1e-05
6  0.208646  4.598731  -2.291321 9.8e-05  0.000479  -0.000396
6  0.219105  3.499215  -0.336637 1.9e-05  4.1e-05  2e-06
6  1.584619  8.875924  -3.385107 1.2e-05  -1.7e-05  5e-05
6  1.782759  10.078136  -4.073627 0.00071  0.001432  0.0008
1  2.215400  10.958064  -3.591448 -0.008058  -0.016421  -0.008983
6  1.379182  10.126250  -5.408379 -1e-05  4.9e-05  -6.9e-05
6  0.822331  8.981485  -6.053533 1.6e-05  0.00015  -0.000151
6  0.594947  7.796587  -5.353363 -0.001827  -0.003595  -0.002046
1  0.153503  6.930820  -5.853027 0.02089  0.040994  0.023672
6  0.984047  7.759860  -4.009378 3.3e-05  -3.2e-05  0.000154
6  -0.470694  3.330417  -2.524752 0.001422  0.00149  0.002324
6  -1.069547  2.785403  -3.666610 -0.000884  0.042525  -0.075936
1  -1.082958  3.315281  -4.621989 0.012255  -0.48223  0.869542
6  -1.656094  1.523548  -3.549287 -0.001824  -0.003605  -0.000215
6  -1.643891  0.829769  -2.300442 -8.6e-05  -0.000326  0.000275
6  -1.054524  1.377833  -1.163614 7.6e-05  -0.000806  0.001685
1  -1.047897  0.849814  -0.203942 -5e-06  0.010146  -0.018068
6  -0.461744  2.641113  -1.292885 -0.0  -0.000387  0.000697
8  1.561543  11.289408  -6.130983 -2e-06  -1.1e-05  9e-06
8  0.456576  9.066279  -7.384615 -2e-06  -1.1e-05  1.7e-05
8  -2.247387  0.943258  -4.633013 0.000162  0.000367  -6.3e-05
8  0.524098  1.466313  6.127027 3e-06  6e-06  -4e-06
8  1.625783  3.699191  7.367660 -3e-06  1e-06  -6e-06
8  3.425625  5.408669  -0.561990 -1.7e-05  5e-06  4e-06
8  -2.262316  -0.402848  -2.343578 3.7e-05  3.2e-05  7.5e-05
8  4.359842  11.883565  4.581877 -2e-06  -5e-06  -3e-06
8  4.349973  13.171875  2.290160 -2e-06  -5e-06  -2e-06
1  0.881467  3.215060  7.771918 3.2e-05  1.6e-05  -1.8e-05
1  1.207540  1.342662  6.812001 -2.7e-05  3e-06  -2.3e-05
1  -2.213160  -0.821066  -1.467846 0.000112  0.000896  -0.001104
1  -2.592746  0.075313  -4.347532 0.000498  -8.4e-05  0.001929
1  1.136216  9.585584  -7.853589 2.9e-05  -2.4e-05  8e-05
1  0.813799  11.377801  -6.751482 2.3e-05  -2.9e-05  4.1e-05
1  4.304140  13.535608  1.388759 5e-06  -3e-06  3.6e-05
1  4.318527  11.302935  5.361665 5e-06  2.9e-05  -2.1e-05
