ATOMS
23  1.985697  5.996766  -0.225995 -0.000618  0.000233  0.000157
7  1.465808  5.248419  1.610420 -0.000318  -0.001656  0.003279
7  2.290065  7.760927  0.765131 0.000577  0.001377  0.000775
7  0.372438  3.176203  0.943853 0.014433  0.003548  0.060557
7  2.405861  6.962218  3.064312 -0.0156  -0.052066  0.028801
6  0.927127  3.992390  1.833918 -0.005844  0.019779  -0.083507
6  1.879640  5.765256  2.826772 0.014624  0.056348  -0.062739
6  2.574669  7.878644  2.116466 0.001101  0.021542  -0.035438
6  2.566406  8.977683  0.161527 0.001426  -0.019067  0.036874
6  1.018977  3.674618  3.252763 -0.123609  -0.284489  0.017387
6  0.641667  2.543634  3.986040 0.062957  0.138937  0.010192
1  0.202166  1.663949  3.509623 0.0642  0.106649  0.109015
6  0.878204  2.562204  5.360574 -0.090348  -0.138484  -0.150548
6  1.433320  3.711168  5.999464 0.099373  0.199002  0.03773
6  1.825580  4.828382  5.261626 -0.054259  -0.08571  -0.116254
1  2.257216  5.700030  5.759513 -0.068812  -0.149148  -0.031996
6  1.617996  4.790990  3.878014 0.101776  0.143247  0.257926
6  3.075879  9.217393  2.388993 0.001406  0.009093  -0.009616
6  3.496999  9.844565  3.567916 -0.001802  -0.00637  0.00177
1  3.494779  9.301739  4.519615 0.000764  -0.00071  0.004667
6  3.921732  11.173875  3.498436 0.00157  0.010869  -0.010619
6  3.916369  11.875861  2.249636 0.001696  -0.003368  0.014837
6  3.486498  11.242629  1.080669 -0.001866  -0.001877  -0.00639
1  3.476086  11.773358  0.122230 0.00076  0.003684  -0.003008
6  3.070730  9.908012  1.160470 0.001521  -0.003435  0.012768
7  1.450745  7.175121  -1.814962 -0.000459  0.001881  -0.003338
7  0.622139  4.663640  -0.970547 -0.000727  -0.001157  -0.000708
7  2.388096  9.310874  -1.112708 -0.016066  -0.002634  -0.059391
7  0.351398  5.526158  -3.231816 0.014124  0.0539  -0.028545
6  1.858376  8.484498  -2.008653 0.01552  -0.023712  0.080607
6  0.903995  6.712246  -3.000312 -0.0052  -0.060684  0.059564
6  0.208646  4.598731  -2.291321 -0.000679  -0.023514  0.035418
6  0.219105  3.499215  -0.336637 -0.000556  0.018632  -0.037569
6  1.584619  8.875924  -3.385107 0.099551  0.292323  -0.012975
6  1.782759  10.078136  -4.073627 -0.053272  -0.142769  -0.011839
1  2.215400  10.958064  -3.591448 -0.068662  -0.103887  -0.109236
6  1.379182  10.126250  -5.408379 0.098866  0.134036  0.147832
6  0.822331  8.981485  -6.053533 -0.088615  -0.197378  -0.039094
6  0.594947  7.796587  -5.353363 0.062864  0.079643  0.111826
1  0.153503  6.930820  -5.853027 0.063274  0.147216  0.03364
6  0.984047  7.759860  -4.009378 -0.123875  -0.131992  -0.248063
6  -0.470694  3.330417  -2.524752 -0.000201  -0.00832  0.012863
6  -1.069547  2.785403  -3.666610 0.00198  0.006254  -0.003676
1  -1.082958  3.315281  -4.621989 -0.000577  0.002263  -0.006385
6  -1.656094  1.523548  -3.549287 -0.003181  -0.012538  0.010522
6  -1.643891  0.829769  -2.300442 -0.004059  0.001729  -0.017369
6  -1.054524  1.377833  -1.163614 0.003872  0.003054  0.008565
1  -1.047897  0.849814  -0.203942 -0.002509  -0.007056  0.003071
6  -0.461744  2.641113  -1.292885 -0.00197  0.003747  -0.014433
8  1.561543  11.289408  -6.130983 -0.017932  -0.015774  -0.012559
8  0.456576  9.066279  -7.384615 0.016587  0.018244  0.00519
8  -2.247387  0.943258  -4.633013 0.000222  0.001346  -0.001546
8  0.524098  1.466313  6.127027 0.016952  0.014365  0.013013
8  1.625783  3.699191  7.367660 -0.018027  -0.019106  -0.006864
8  3.425625  5.408669  -0.561990 0.001602  -0.00065  -0.000373
8  -2.262316  -0.402848  -2.343578 0.0009  0.000825  0.001722
8  4.359842  11.883565  4.581877 -0.000408  -0.00161  0.000631
8  4.349973  13.171875  2.290160 -0.000418  -0.000308  -0.001705
1  0.881467  3.215060  7.771918 0.072647  0.026654  0.190322
1  1.207540  1.342662  6.812001 -0.088622  -0.153872  0.074715
1  -2.213160  -0.821066  -1.467846 -0.007569  -0.012351  -0.005211
1  -2.592746  0.075313  -4.347532 0.007307  0.003918  0.018946
1  1.136216  9.585584  -7.853589 -0.087888  -0.015934  -0.165194
1  0.813799  11.377801  -6.751482 0.070857  0.175949  -0.076268
1  4.304140  13.535608  1.388759 0.006065  0.015377  0.00544
1  4.318527  11.302935  5.361665 0.006099  0.012643  0.010264
