ATOMS
23  1.985697  5.996766  -0.225995 -0.000364  0.014393  -0.02759
7  1.465808  5.248419  1.610420 0.000707  0.012194  -0.02185
7  2.290065  7.760927  0.765131 -7.1e-05  0.013357  -0.025444
7  0.372438  3.176203  0.943853 -0.003675  0.018908  -0.014906
7  2.405861  6.962218  3.064312 -0.010583  0.009887  -0.021298
6  0.927127  3.992390  1.833918 0.015682  0.007297  -0.020754
6  1.879640  5.765256  2.826772 -0.019398  0.016354  -0.018703
6  2.574669  7.878644  2.116466 0.004131  -0.0003  -0.027798
6  2.566406  8.977683  0.161527 -0.004054  0.022398  -0.014744
6  1.018977  3.674618  3.252763 0.027604  -0.001032  -0.024317
6  0.641667  2.543634  3.986040 0.086367  -0.027344  -0.035561
1  0.202166  1.663949  3.509623 0.156416  -0.056534  -0.046223
6  0.878204  2.562204  5.360574 0.060475  -0.013367  -0.031444
6  1.433320  3.711168  5.999464 -0.05924  0.035379  -0.014764
6  1.825580  4.828382  5.261626 -0.087604  0.049581  -0.008206
1  2.257216  5.700030  5.759513 -0.157693  0.078857  0.001255
6  1.617996  4.790990  3.878014 -0.02955  0.023346  -0.0158
6  3.075879  9.217393  2.388993 0.015162  -0.013828  -0.015242
6  3.496999  9.844565  3.567916 0.048074  -0.068644  -0.000297
1  3.494779  9.301739  4.519615 0.081522  -0.1183  -0.028671
6  3.921732  11.173875  3.498436 0.039048  -0.066193  0.046092
6  3.916369  11.875861  2.249636 -0.037983  -0.006673  0.079874
6  3.486498  11.242629  1.080669 -0.046798  0.034081  0.057795
1  3.476086  11.773358  0.122230 -0.080446  0.084076  0.08572
6  3.070730  9.908012  1.160470 -0.014003  0.018448  0.003067
7  1.450745  7.175121  -1.814962 -0.002082  0.010991  -0.022409
7  0.622139  4.663640  -0.970547 -6.2e-05  0.012956  -0.025044
7  2.388096  9.310874  -1.112708 0.009246  0.011963  -0.019692
7  0.351398  5.526158  -3.231816 0.002436  0.0021  -0.024817
6  1.858376  8.484498  -2.008653 0.017243  0.006454  -0.023451
6  0.903995  6.712246  -3.000312 -0.017243  0.013286  -0.017931
6  0.208646  4.598731  -2.291321 0.015842  -0.008293  -0.032277
6  0.219105  3.499215  -0.336637 -0.016201  0.030244  -0.010206
6  1.584619  8.875924  -3.385107 0.026716  0.001657  -0.027073
6  1.782759  10.078136  -4.073627 0.084998  -0.016905  -0.043348
1  2.215400  10.958064  -3.591448 0.154286  -0.040965  -0.061576
6  1.379182  10.126250  -5.408379 0.058796  -0.001893  -0.03475
6  0.822331  8.981485  -6.053533 -0.058527  0.037732  -0.003467
6  0.594947  7.796587  -5.353363 -0.085416  0.047135  0.004408
1  0.153503  6.930820  -5.853027 -0.152861  0.071658  0.021437
6  0.984047  7.759860  -4.009378 -0.029374  0.021846  -0.011909
6  -0.470694  3.330417  -2.524752 0.029067  -0.024836  -0.020844
6  -1.069547  2.785403  -3.666610 0.087283  -0.099468  -0.018083
1  -1.082958  3.315281  -4.621989 0.150888  -0.172879  -0.059831
6  -1.656094  1.523548  -3.549287 0.064017  -0.086751  0.034594
6  -1.643891  0.829769  -2.300442 -0.063396  0.013473  0.091428
6  -1.054524  1.377833  -1.163614 -0.087542  0.06527  0.075678
1  -1.047897  0.849814  -0.203942 -0.15025  0.139013  0.116558
6  -0.461744  2.641113  -1.292885 -0.029617  0.029212  0.009823
8  1.561543  11.289408  -6.130983 0.143098  -0.027619  -0.056341
8  0.456576  9.066279  -7.384615 -0.139086  0.067202  0.020333
8  -2.247387  0.943258  -4.633013 0.153759  -0.171167  0.030566
8  0.524098  1.466313  6.127027 0.145644  -0.048715  -0.043325
8  1.625783  3.699191  7.367660 -0.142322  0.069065  -0.00337
8  3.425625  5.408669  -0.561990 -0.00048  0.018627  -0.035366
8  -2.262316  -0.402848  -2.343578 -0.146114  0.052776  0.160747
8  4.359842  11.883565  4.581877 0.094138  -0.121905  0.060038
8  4.349973  13.171875  2.290160 -0.093956  0.01052  0.135363
1  0.881467  3.215060  7.771918 -0.120159  0.000281  -0.044994
1  1.207540  1.342662  6.812001 0.133281  0.024233  -0.017874
1  -2.213160  -0.821066  -1.467846 -0.205153  0.115445  0.193984
1  -2.592746  0.075313  -4.347532 0.105508  -0.136735  0.076905
1  1.136216  9.585584  -7.853589 -0.128609  0.01265  -0.025004
1  0.813799  11.377801  -6.751482 0.119745  0.046523  -0.017644
1  4.304140  13.535608  1.388759 -0.140716  0.058944  0.157291
1  4.318527  11.302935  5.361665 0.141226  -0.165711  0.029925
