ATOMS
23  1.985697  5.996766  -0.225995 8.2e-05  0.001073  0.000152
7  1.465808  5.248419  1.610420 -0.057006  -0.105979  -0.048471
7  2.290065  7.760927  0.765131 0.012396  0.031737  0.001172
7  0.372438  3.176203  0.943853 0.047617  0.123102  -0.046973
7  2.405861  6.962218  3.064312 0.042994  0.039741  0.16831
6  0.927127  3.992390  1.833918 -0.023095  -0.103016  0.131284
6  1.879640  5.765256  2.826772 0.0047  0.055062  -0.143156
6  2.574669  7.878644  2.116466 0.00361  -0.017766  0.054851
6  2.566406  8.977683  0.161527 0.015763  0.069688  -0.03156
6  1.018977  3.674618  3.252763 0.018674  0.001127  0.114942
6  0.641667  2.543634  3.986040 -0.020314  -0.055048  -0.022498
1  0.202166  1.663949  3.509623 -0.045884  0.029799  -0.154113
6  0.878204  2.562204  5.360574 -0.011633  -0.022919  -0.037754
6  1.433320  3.711168  5.999464 -0.010767  -0.029483  0.002418
6  1.825580  4.828382  5.261626 -0.021835  -0.032521  -0.062675
1  2.257216  5.700030  5.759513 -0.015082  -0.077627  0.012668
6  1.617996  4.790990  3.878014 0.027852  0.099496  -0.079586
6  3.075879  9.217393  2.388993 -0.028279  -0.059007  -0.036277
6  3.496999  9.844565  3.567916 -0.031713  -0.086485  -0.042273
1  3.494779  9.301739  4.519615 -0.113247  -0.207845  -0.110845
6  3.921732  11.173875  3.498436 -0.006384  -0.029983  0.030204
6  3.916369  11.875861  2.249636 -0.008584  0.009626  -0.049138
6  3.486498  11.242629  1.080669 -0.029139  -0.069654  -0.061375
1  3.476086  11.773358  0.122230 -0.124808  -0.209837  -0.138385
6  3.070730  9.908012  1.160470 -0.018647  -0.047816  -0.008729
7  1.450745  7.175121  -1.814962 -0.05497  -0.103564  -0.051076
7  0.622139  4.663640  -0.970547 0.02317  0.043372  0.006244
7  2.388096  9.310874  -1.112708 0.032912  0.131317  -0.043869
7  0.351398  5.526158  -3.231816 0.059565  0.028577  0.159006
6  1.858376  8.484498  -2.008653 0.002231  -0.108584  0.121469
6  0.903995  6.712246  -3.000312 -0.019716  0.061345  -0.13767
6  0.208646  4.598731  -2.291321 0.011048  -0.01451  0.058276
6  0.219105  3.499215  -0.336637 0.026948  0.072852  -0.031868
6  1.584619  8.875924  -3.385107 0.027446  -0.004076  0.112736
6  1.782759  10.078136  -4.073627 -0.020321  -0.054333  -0.018532
1  2.215400  10.958064  -3.591448 -0.038295  0.02052  -0.137401
6  1.379182  10.126250  -5.408379 -0.014164  -0.01971  -0.035288
6  0.822331  8.981485  -6.053533 -0.008282  -0.031766  0.001199
6  0.594947  7.796587  -5.353363 -0.025066  -0.032268  -0.056033
1  0.153503  6.930820  -5.853027 -0.028831  -0.078208  0.028652
6  0.984047  7.759860  -4.009378 0.016914  0.100563  -0.072388
6  -0.470694  3.330417  -2.524752 -0.036092  -0.054012  -0.036731
6  -1.069547  2.785403  -3.666610 -0.0551  -0.084458  -0.042264
1  -1.082958  3.315281  -4.621989 -0.155123  -0.250998  -0.131073
6  -1.656094  1.523548  -3.549287 -0.003546  -0.032639  0.039024
6  -1.643891  0.829769  -2.300442 -0.010507  0.004471  -0.054975
6  -1.054524  1.377833  -1.163614 -0.060267  -0.069502  -0.064035
1  -1.047897  0.849814  -0.203942 -0.12577  -0.252498  -0.164571
6  -0.461744  2.641113  -1.292885 -0.023265  -0.049181  -0.007301
8  1.561543  11.289408  -6.130983 0.003799  0.055624  -0.027794
8  0.456576  9.066279  -7.384615 0.016718  -0.000866  0.079007
8  -2.247387  0.943258  -4.633013 0.045739  0.04935  0.077166
8  0.524098  1.466313  6.127027 0.010955  0.051739  -0.028582
8  1.625783  3.699191  7.367660 0.007095  0.002969  0.086436
8  3.425625  5.408669  -0.561990 -0.000683  -0.001393  -0.000988
8  -2.262316  -0.402848  -2.343578 0.036082  0.072588  0.004546
8  4.359842  11.883565  4.581877 0.029573  0.049605  0.067235
8  4.349973  13.171875  2.290160 0.024011  0.066987  0.006826
1  0.881467  3.215060  7.771918 0.036313  -0.045303  0.086042
1  1.207540  1.342662  6.812001 0.053071  0.051124  -0.071755
1  -2.213160  -0.821066  -1.467846 0.080605  0.142037  0.034143
1  -2.592746  0.075313  -4.347532 0.00499  0.032294  -0.039916
1  1.136216  9.585584  -7.853589 0.047081  -0.046235  0.075903
1  0.813799  11.377801  -6.751482 0.040688  0.058442  -0.072844
1  4.304140  13.535608  1.388759 0.049115  0.132975  0.03087
1  4.318527  11.302935  5.361665 0.048611  0.089817  0.100443
