ATOMS
23  1.985697  5.996766  -0.225995 0.001122  -0.000468  0.000192
7  1.465808  5.248419  1.610420 -0.002104  -0.0208  0.072672
7  2.290065  7.760927  0.765131 0.01358  0.028283  0.035225
7  0.372438  3.176203  0.943853 0.002825  0.011037  -0.002887
7  2.405861  6.962218  3.064312 -0.008516  -0.011439  -0.011611
6  0.927127  3.992390  1.833918 -0.008417  -0.013443  -0.016435
6  1.879640  5.765256  2.826772 0.004235  0.010523  -0.006698
6  2.574669  7.878644  2.116466 -0.005164  -0.021826  0.008038
6  2.566406  8.977683  0.161527 -0.003923  0.009395  -0.037158
6  1.018977  3.674618  3.252763 -0.013766  -0.003482  -0.067724
6  0.641667  2.543634  3.986040 -0.003367  -0.001263  -0.014324
1  0.202166  1.663949  3.509623 -0.023491  -0.157739  0.290246
6  0.878204  2.562204  5.360574 0.009534  0.01754  -0.015894
6  1.433320  3.711168  5.999464 -0.008209  0.001259  -0.03096
6  1.825580  4.828382  5.261626 0.006339  0.015536  -0.010997
1  2.257216  5.700030  5.759513 -0.025182  -0.155781  0.319167
6  1.617996  4.790990  3.878014 0.022941  0.063019  -0.038279
6  3.075879  9.217393  2.388993 -0.011411  -0.039749  0.008912
6  3.496999  9.844565  3.567916 -0.002289  -0.012251  0.009198
1  3.494779  9.301739  4.519615 0.048322  0.104199  0.077503
6  3.921732  11.173875  3.498436 -0.00162  0.002492  -0.012748
6  3.916369  11.875861  2.249636 -9.2e-05  -0.001361  0.002025
6  3.486498  11.242629  1.080669 -9.8e-05  0.002887  -0.005782
1  3.476086  11.773358  0.122230 0.045774  0.11107  0.052447
6  3.070730  9.908012  1.160470 -0.0097  -0.009374  -0.033289
7  1.450745  7.175121  -1.814962 -0.004101  0.063563  -0.073542
7  0.622139  4.663640  -0.970547 -0.032582  -0.05235  -0.014503
7  2.388096  9.310874  -1.112708 -0.010418  -0.015846  -0.01261
7  0.351398  5.526158  -3.231816 0.00501  0.009883  0.007663
6  1.858376  8.484498  -2.008653 -3.7e-05  -0.005927  0.006654
6  0.903995  6.712246  -3.000312 -0.005961  -0.014348  -0.001817
6  0.208646  4.598731  -2.291321 0.00422  0.020783  -0.019955
6  0.219105  3.499215  -0.336637 0.005984  0.00381  0.014232
6  1.584619  8.875924  -3.385107 0.031882  -0.002868  0.103146
6  1.782759  10.078136  -4.073627 0.007513  -0.003016  0.022488
1  2.215400  10.958064  -3.591448 -0.042159  0.274006  -0.435046
6  1.379182  10.126250  -5.408379 -0.010265  -0.034515  0.029122
6  0.822331  8.981485  -6.053533 0.014542  -0.009451  0.035952
6  0.594947  7.796587  -5.353363 -0.003797  -0.015569  0.008883
1  0.153503  6.930820  -5.853027 -0.037622  0.241274  -0.409336
6  0.984047  7.759860  -4.009378 -0.0178  -0.084575  0.048202
6  -0.470694  3.330417  -2.524752 0.024905  0.056752  -0.009269
6  -1.069547  2.785403  -3.666610 0.003008  0.006628  -0.001599
1  -1.082958  3.315281  -4.621989 -0.138189  -0.207437  -0.120094
6  -1.656094  1.523548  -3.549287 0.005142  0.007184  0.006133
6  -1.643891  0.829769  -2.300442 0.00803  0.023472  -0.012149
6  -1.054524  1.377833  -1.163614 0.006621  0.000272  0.022826
1  -1.047897  0.849814  -0.203942 -0.113242  -0.184061  -0.075641
6  -0.461744  2.641113  -1.292885 0.02616  0.020514  0.057298
8  1.561543  11.289408  -6.130983 0.010222  0.038581  -0.02208
8  0.456576  9.066279  -7.384615 -0.01495  0.000579  -0.036468
8  -2.247387  0.943258  -4.633013 -0.005878  -0.005808  -0.010757
8  0.524098  1.466313  6.127027 -0.009187  -0.019937  0.013216
8  1.625783  3.699191  7.367660 0.006538  0.000304  0.030701
8  3.425625  5.408669  -0.561990 0.007696  -0.003052  -0.001609
8  -2.262316  -0.402848  -2.343578 -0.011391  -0.021359  -0.003165
8  4.359842  11.883565  4.581877 0.003756  0.006761  0.008128
8  4.349973  13.171875  2.290160 0.00054  0.001882  -0.000417
1  0.881467  3.215060  7.771918 -0.017485  -0.020013  -0.033291
1  1.207540  1.342662  6.812001 0.02461  0.039307  -0.007208
1  -2.213160  -0.821066  -1.467846 0.017672  0.025165  0.019154
1  -2.592746  0.075313  -4.347532 0.006558  -0.000579  0.024073
1  1.136216  9.585584  -7.853589 0.041411  0.024322  0.065395
1  0.813799  11.377801  -6.751482 -0.030911  -0.073043  0.00674
1  4.304140  13.535608  1.388759 0.003921  0.010343  0.002649
1  4.318527  11.302935  5.361665 -0.00669  -0.015739  -0.008101
