ATOMS
23  1.985697  5.996766  -0.225995 0.015972  -0.031032  0.074152
7  1.465808  5.248419  1.610420 -0.111752  0.047267  0.000601
7  2.290065  7.760927  0.765131 -0.020846  0.02158  -0.033079
7  0.372438  3.176203  0.943853 0.031227  -0.004878  -0.041176
7  2.405861  6.962218  3.064312 0.001512  0.007607  -0.037579
6  0.927127  3.992390  1.833918 0.012014  -0.006292  -0.028904
6  1.879640  5.765256  2.826772 -0.005025  0.008516  -0.025495
6  2.574669  7.878644  2.116466 -0.013531  0.012731  -0.036068
6  2.566406  8.977683  0.161527 0.009857  0.013418  -0.036805
6  1.018977  3.674618  3.252763 0.124865  -0.051928  -0.048704
6  0.641667  2.543634  3.986040 0.125523  -0.047969  -0.045312
1  0.202166  1.663949  3.509623 0.110529  -0.044743  -0.037303
6  0.878204  2.562204  5.360574 0.045427  -0.00613  -0.032339
6  1.433320  3.711168  5.999464 0.050821  -0.004632  -0.040209
6  1.825580  4.828382  5.261626 0.121372  -0.039357  -0.0527
1  2.257216  5.700030  5.759513 0.104734  -0.029305  -0.056098
6  1.617996  4.790990  3.878014 0.116278  -0.045008  -0.049007
6  3.075879  9.217393  2.388993 0.010936  0.000651  -0.038405
6  3.496999  9.844565  3.567916 0.006867  -0.017069  -0.030296
1  3.494779  9.301739  4.519615 -0.003761  -0.029864  -0.037703
6  3.921732  11.173875  3.498436 0.001398  -0.016223  -0.010942
6  3.916369  11.875861  2.249636 0.005673  -0.001633  -0.002784
6  3.486498  11.242629  1.080669 0.028689  0.007239  -0.017574
1  3.476086  11.773358  0.122230 0.035501  0.021042  -0.010038
6  3.070730  9.908012  1.160470 0.02443  0.006224  -0.035458
7  1.450745  7.175121  -1.814962 0.115074  -0.03979  -0.049969
7  0.622139  4.663640  -0.970547 0.024327  0.005824  -0.039516
7  2.388096  9.310874  -1.112708 -0.002826  0.01457  -0.033682
7  0.351398  5.526158  -3.231816 -0.04812  0.033017  -0.019429
6  1.858376  8.484498  -2.008653 -0.00175  0.005224  -0.026105
6  0.903995  6.712246  -3.000312 -0.018729  0.018757  -0.016643
6  0.208646  4.598731  -2.291321 -0.015758  0.018584  -0.029986
6  0.219105  3.499215  -0.336637 0.009408  0.013947  -0.034592
6  1.584619  8.875924  -3.385107 -0.132182  0.058084  0.012859
6  1.782759  10.078136  -4.073627 -0.135272  0.061119  0.012956
1  2.215400  10.958064  -3.591448 -0.116916  0.055069  0.007668
6  1.379182  10.126250  -5.408379 -0.056334  0.037089  -0.012628
6  0.822331  8.981485  -6.053533 -0.049708  0.033776  -0.013026
6  0.594947  7.796587  -5.353363 -0.139987  0.065601  0.013185
1  0.153503  6.930820  -5.853027 -0.124224  0.06018  0.008465
6  0.984047  7.759860  -4.009378 -0.14168  0.063897  0.016008
6  -0.470694  3.330417  -2.524752 -0.039277  0.02664  -0.02188
6  -1.069547  2.785403  -3.666610 -0.043761  0.009515  -0.013841
1  -1.082958  3.315281  -4.621989 -0.051051  -0.004385  -0.021551
6  -1.656094  1.523548  -3.549287 -0.012131  -0.006099  -0.003794
6  -1.643891  0.829769  -2.300442 -0.012556  0.01114  0.005852
6  -1.054524  1.377833  -1.163614 -0.017842  0.030175  -0.00249
1  -1.047897  0.849814  -0.203942 -0.004055  0.041393  0.003516
6  -0.461744  2.641113  -1.292885 -0.021189  0.028096  -0.021852
8  1.561543  11.289408  -6.130983 0.079217  -0.010079  -0.054269
8  0.456576  9.066279  -7.384615 0.113244  -0.016079  -0.062809
8  -2.247387  0.943258  -4.633013 0.029935  -0.047068  -0.005329
8  0.524098  1.466313  6.127027 -0.100851  0.059185  -0.009292
8  1.625783  3.699191  7.367660 -0.071758  0.057855  -0.022592
8  3.425625  5.408669  -0.561990 0.062483  -0.220287  0.604512
8  -2.262316  -0.402848  -2.343578 0.006669  0.001215  0.022528
8  4.359842  11.883565  4.581877 -0.017812  -0.029198  0.00463
8  4.349973  13.171875  2.290160 -0.021037  0.006571  0.02408
1  0.881467  3.215060  7.771918 -0.140699  0.129662  -0.063852
1  1.207540  1.342662  6.812001 -0.183682  0.052534  0.072231
1  -2.213160  -0.821066  -1.467846 0.030678  0.00638  0.02365
1  -2.592746  0.075313  -4.347532 0.049883  -0.051332  0.006002
1  1.136216  9.585584  -7.853589 0.206703  -0.086959  -0.005727
1  0.813799  11.377801  -6.751482 0.15596  -0.008431  -0.146733
1  4.304140  13.535608  1.388759 -0.020281  0.022742  0.030577
1  4.318527  11.302935  5.361665 -0.02515  -0.041545  -0.004968
