ATOMS
23  1.985697  5.996766  -0.225995 -3e-06  -4.1e-05  0.000102
7  1.465808  5.248419  1.610420 0.00201  0.004151  -0.000894
7  2.290065  7.760927  0.765131 0.00011  -0.015157  0.026929
7  0.372438  3.176203  0.943853 -0.001136  -0.001855  -0.002122
7  2.405861  6.962218  3.064312 0.012257  0.036065  -0.012131
6  0.927127  3.992390  1.833918 0.002599  0.000858  0.013138
6  1.879640  5.765256  2.826772 -0.021829  -0.052065  0.000236
6  2.574669  7.878644  2.116466 0.014083  0.02778  0.025072
6  2.566406  8.977683  0.161527 -0.014548  -0.037382  -0.010833
6  1.018977  3.674618  3.252763 0.012037  0.036151  -0.025089
6  0.641667  2.543634  3.986040 -0.005644  -0.027008  0.036604
1  0.202166  1.663949  3.509623 -0.003059  0.014583  -0.043552
6  0.878204  2.562204  5.360574 0.00246  0.016078  -0.021429
6  1.433320  3.711168  5.999464 -0.013018  -0.032657  0.02058
6  1.825580  4.828382  5.261626 0.006202  0.022681  -0.028891
1  2.257216  5.700030  5.759513 -0.000846  -0.007285  0.03239
6  1.617996  4.790990  3.878014 -0.000978  -0.005183  0.01001
6  3.075879  9.217393  2.388993 -0.106459  -0.204904  -0.211313
6  3.496999  9.844565  3.567916 0.132876  0.299276  0.187435
1  3.494779  9.301739  4.519615 -0.141626  -0.332868  -0.174107
6  3.921732  11.173875  3.498436 -0.085587  -0.227621  -0.05585
6  3.916369  11.875861  2.249636 0.085898  0.169256  0.159195
6  3.486498  11.242629  1.080669 -0.133509  -0.319643  -0.155529
1  3.476086  11.773358  0.122230 0.142628  0.322816  0.197161
6  3.070730  9.908012  1.160470 0.107127  0.29343  0.060905
7  1.450745  7.175121  -1.814962 -0.001999  -0.001287  -0.004026
7  0.622139  4.663640  -0.970547 -7.2e-05  2.4e-05  -0.00027
7  2.388096  9.310874  -1.112708 -0.012391  -0.008123  -0.037024
7  0.351398  5.526158  -3.231816 0.000508  0.001218  0.000703
6  1.858376  8.484498  -2.008653 0.022037  0.026652  0.044691
6  0.903995  6.712246  -3.000312 -0.002121  -0.011188  0.006738
6  0.208646  4.598731  -2.291321 5.8e-05  0.002266  -0.00351
6  0.219105  3.499215  -0.336637 0.001261  0.003601  -0.001883
6  1.584619  8.875924  -3.385107 0.00113  -0.006069  0.010028
6  1.782759  10.078136  -4.073627 -0.006687  0.013238  -0.035248
1  2.215400  10.958064  -3.591448 0.001189  -0.024616  0.023898
6  1.379182  10.126250  -5.408379 0.013632  -0.000667  0.039433
6  0.822331  8.981485  -6.053533 -0.002727  0.010298  -0.025498
6  0.594947  7.796587  -5.353363 0.006276  -0.017715  0.043417
1  0.153503  6.930820  -5.853027 0.002807  0.030733  -0.03626
6  0.984047  7.759860  -4.009378 -0.012799  0.002806  -0.045331
6  -0.470694  3.330417  -2.524752 0.010281  0.01394  0.011163
6  -1.069547  2.785403  -3.666610 -0.016411  -0.026579  -0.011413
1  -1.082958  3.315281  -4.621989 0.016994  0.024165  0.017241
6  -1.656094  1.523548  -3.549287 0.013641  0.026935  0.001623
6  -1.643891  0.829769  -2.300442 -0.010605  -0.01506  -0.011509
6  -1.054524  1.377833  -1.163614 0.016312  0.026198  0.011656
1  -1.047897  0.849814  -0.203942 -0.016869  -0.0247  -0.015924
6  -0.461744  2.641113  -1.292885 -0.01255  -0.024964  8.1e-05
8  1.561543  11.289408  -6.130983 -0.003096  -0.0007  -0.002594
8  0.456576  9.066279  -7.384615 -0.000674  -0.000451  0.002068
8  -2.247387  0.943258  -4.633013 -0.001322  -0.003271  0.000957
8  0.524098  1.466313  6.127027 0.000658  -0.001507  0.00145
8  1.625783  3.699191  7.367660 0.002996  0.002517  -0.00075
8  3.425625  5.408669  -0.561990 2.2e-05  -6.2e-05  8e-05
8  -2.262316  -0.402848  -2.343578 0.001014  0.001582  0.000912
8  4.359842  11.883565  4.581877 0.009693  0.022481  0.011635
8  4.349973  13.171875  2.290160 -0.009581  -0.021824  -0.012201
1  0.881467  3.215060  7.771918 -0.016021  0.000935  -0.030818
1  1.207540  1.342662  6.812001 -0.008969  -0.005037  0.008328
1  -2.213160  -0.821066  -1.467846 -0.003975  -0.00678  -0.002496
1  -2.592746  0.075313  -4.347532 -0.009422  -0.00488  -0.025214
1  1.136216  9.585584  -7.853589 0.009405  -0.004687  0.008845
1  0.813799  11.377801  -6.751482 0.016242  0.026574  -0.017381
1  4.304140  13.535608  1.388759 0.030043  0.076153  0.024765
1  4.318527  11.302935  5.361665 -0.032924  -0.066659  -0.05698
