ATOMS
23  1.985697  5.996766  -0.225995 -0.001537  0.023287  -0.044483
7  1.465808  5.248419  1.610420 -0.253461  0.122288  0.021937
7  2.290065  7.760927  0.765131 -0.009921  0.006902  -0.006044
7  0.372438  3.176203  0.943853 0.216748  -0.095527  -0.049839
7  2.405861  6.962218  3.064312 0.224238  -0.08949  -0.046981
6  0.927127  3.992390  1.833918 -0.046647  0.026993  0.00277
6  1.879640  5.765256  2.826772 -0.047063  0.020238  -0.001674
6  2.574669  7.878644  2.116466 0.091004  -0.03721  -0.022751
6  2.566406  8.977683  0.161527 -0.094544  0.039079  0.021266
6  1.018977  3.674618  3.252763 -0.032641  0.011577  0.011535
6  0.641667  2.543634  3.986040 0.002492  0.001037  0.02573
1  0.202166  1.663949  3.509623 0.016765  -0.007854  0.027792
6  0.878204  2.562204  5.360574 -0.002781  -0.015328  0.032094
6  1.433320  3.711168  5.999464 -0.003115  -0.014673  0.034032
6  1.825580  4.828382  5.261626 -0.004429  -0.01938  0.015375
1  2.257216  5.700030  5.759513 0.012324  -0.02812  0.017305
6  1.617996  4.790990  3.878014 -0.030012  0.010097  0.010988
6  3.075879  9.217393  2.388993 -0.015033  -0.000601  0.007328
6  3.496999  9.844565  3.567916 -0.157046  0.050729  0.03306
1  3.494779  9.301739  4.519615 -0.22954  0.078098  0.048597
6  3.921732  11.173875  3.498436 -0.043926  0.01544  0.010383
6  3.916369  11.875861  2.249636 0.044965  -0.013817  -0.006625
6  3.486498  11.242629  1.080669 0.157709  -0.05318  -0.025061
1  3.476086  11.773358  0.122230 0.231833  -0.080535  -0.040999
6  3.070730  9.908012  1.160470 0.012715  -0.004526  0.005064
7  1.450745  7.175121  -1.814962 0.255297  -0.082849  -0.096001
7  0.622139  4.663640  -0.970547 0.009203  -0.0016  -0.009697
7  2.388096  9.310874  -1.112708 -0.207699  0.079491  0.049639
7  0.351398  5.526158  -3.231816 -0.236898  0.099836  0.06308
6  1.858376  8.484498  -2.008653 0.055132  -0.012521  -0.020401
6  0.903995  6.712246  -3.000312 0.039063  -0.013401  -0.020002
6  0.208646  4.598731  -2.291321 -0.094998  0.038984  0.02152
6  0.219105  3.499215  -0.336637 0.09778  -0.040249  -0.023864
6  1.584619  8.875924  -3.385107 0.028671  -0.014047  -0.001988
6  1.782759  10.078136  -4.073627 -0.010163  0.002405  0.03004
1  2.215400  10.958064  -3.591448 -0.034188  0.007678  0.040759
6  1.379182  10.126250  -5.408379 -0.000791  -0.02079  0.032458
6  0.822331  8.981485  -6.053533 0.007867  -0.021488  0.029503
6  0.594947  7.796587  -5.353363 0.012271  -0.028344  0.008447
1  0.153503  6.930820  -5.853027 0.004111  -0.027779  0.01583
6  0.984047  7.759860  -4.009378 0.035178  -0.016439  -0.004553
6  -0.470694  3.330417  -2.524752 0.019148  -0.014538  -0.001875
6  -1.069547  2.785403  -3.666610 0.168031  -0.082835  -0.045269
1  -1.082958  3.315281  -4.621989 0.251931  -0.12042  -0.067172
6  -1.656094  1.523548  -3.549287 0.045874  -0.021043  -0.01188
6  -1.643891  0.829769  -2.300442 -0.046634  0.024752  0.014446
6  -1.054524  1.377833  -1.163614 -0.164295  0.080384  0.050065
1  -1.047897  0.849814  -0.203942 -0.250407  0.119626  0.072269
6  -0.461744  2.641113  -1.292885 -0.014125  0.007241  0.01063
8  1.561543  11.289408  -6.130983 0.00356  -0.040124  0.011959
8  0.456576  9.066279  -7.384615 0.005238  0.008789  0.036761
8  -2.247387  0.943258  -4.633013 -0.064616  0.037052  0.01798
8  0.524098  1.466313  6.127027 -0.009947  -0.030859  0.014345
8  1.625783  3.699191  7.367660 0.001441  0.004423  0.038445
8  3.425625  5.408669  -0.561990 -0.001891  0.031194  -0.05965
8  -2.262316  -0.402848  -2.343578 0.057491  -0.026383  -0.022654
8  4.359842  11.883565  4.581877 0.063164  -0.015105  -0.012286
8  4.349973  13.171875  2.290160 -0.062757  0.021809  0.00354
1  0.881467  3.215060  7.771918 0.008702  0.001228  0.047487
1  1.207540  1.342662  6.812001 -0.022513  -0.036884  0.025581
1  -2.213160  -0.821066  -1.467846 0.18397  -0.094721  -0.062428
1  -2.592746  0.075313  -4.347532 -0.056591  0.032045  0.012586
1  1.136216  9.585584  -7.853589 0.016662  0.000655  0.043863
1  0.813799  11.377801  -6.751482 -0.003806  -0.043034  0.019966
1  4.304140  13.535608  1.388759 -0.014022  -0.002637  -0.008822
1  4.318527  11.302935  5.361665 0.014031  0.004946  5.6e-05
