ATOMS
23  1.985697  5.996766  -0.225995 -3e-06  -3e-06  -3e-06
7  1.465808  5.248419  1.610420 -2e-06  -4e-06  0.0
7  2.290065  7.760927  0.765131 -2e-06  8e-06  -6e-06
7  0.372438  3.176203  0.943853 -2e-06  -2e-06  -4e-06
7  2.405861  6.962218  3.064312 -1e-06  -4e-06  0.0
6  0.927127  3.992390  1.833918 3e-06  5e-06  1e-06
6  1.879640  5.765256  2.826772 1e-06  2e-06  2e-06
6  2.574669  7.878644  2.116466 0.0  4e-06  -1e-06
6  2.566406  8.977683  0.161527 6e-06  -7e-06  3.6e-05
6  1.018977  3.674618  3.252763 1e-06  3e-06  -4e-06
6  0.641667  2.543634  3.986040 -5.1e-05  -0.000102  -5.5e-05
1  0.202166  1.663949  3.509623 0.000584  0.00117  0.000631
6  0.878204  2.562204  5.360574 1e-06  -0.0  5e-06
6  1.433320  3.711168  5.999464 0.0  1e-06  -1e-06
6  1.825580  4.828382  5.261626 -0.0  -1e-06  0.0
1  2.257216  5.700030  5.759513 0.0  1e-06  -0.0
6  1.617996  4.790990  3.878014 0.0  2e-06  1e-06
6  3.075879  9.217393  2.388993 -2e-06  -4e-06  -4e-06
6  3.496999  9.844565  3.567916 1e-06  3e-06  -1e-06
1  3.494779  9.301739  4.519615 -2e-06  -1.4e-05  1.7e-05
6  3.921732  11.173875  3.498436 -0.0  -0.0  -2e-06
6  3.916369  11.875861  2.249636 -2e-06  -5e-06  -2e-06
6  3.486498  11.242629  1.080669 1e-06  -4.3e-05  8.3e-05
1  3.476086  11.773358  0.122230 -1.6e-05  0.000551  -0.001027
6  3.070730  9.908012  1.160470 2e-06  5e-06  -4e-06
7  1.450745  7.175121  -1.814962 -3.9e-05  -8.6e-05  -2.1e-05
7  0.622139  4.663640  -0.970547 2e-06  -1e-06  9e-06
7  2.388096  9.310874  -1.112708 7.7e-05  0.000149  9.1e-05
7  0.351398  5.526158  -3.231816 7.9e-05  0.000128  6.4e-05
6  1.858376  8.484498  -2.008653 -0.00019  -0.000289  -0.000336
6  0.903995  6.712246  -3.000312 -0.000177  -0.00038  -8e-05
6  0.208646  4.598731  -2.291321 2e-06  1.4e-05  -1e-05
6  0.219105  3.499215  -0.336637 2e-06  -0.0  5e-06
6  1.584619  8.875924  -3.385107 0.000413  0.002339  -0.001192
6  1.782759  10.078136  -4.073627 -0.025717  -0.052144  -0.028851
1  2.215400  10.958064  -3.591448 0.29342  0.597647  0.327081
6  1.379182  10.126250  -5.408379 0.000858  -0.000355  0.003046
6  0.822331  8.981485  -6.053533 0.00045  0.002409  -0.001561
6  0.594947  7.796587  -5.353363 -0.023519  -0.046214  -0.026436
1  0.153503  6.930820  -5.853027 0.268306  0.52641  0.304347
6  0.984047  7.759860  -4.009378 0.000774  0.000159  0.002356
6  -0.470694  3.330417  -2.524752 -2.7e-05  -3e-05  -4e-05
6  -1.069547  2.785403  -3.666610 1.8e-05  -0.000832  0.001487
1  -1.082958  3.315281  -4.621989 -0.000253  0.00938  -0.016939
6  -1.656094  1.523548  -3.549287 3.6e-05  7.2e-05  5e-06
6  -1.643891  0.829769  -2.300442 3e-06  8e-06  -5e-06
6  -1.054524  1.377833  -1.163614 -1e-06  2.2e-05  -4.2e-05
1  -1.047897  0.849814  -0.203942 -1e-06  -0.00026  0.000461
6  -0.461744  2.641113  -1.292885 -3e-06  3e-06  -1.6e-05
8  1.561543  11.289408  -6.130983 -0.000151  4.7e-05  -0.000204
8  0.456576  9.066279  -7.384615 -0.000118  -0.000143  0.000124
8  -2.247387  0.943258  -4.633013 -4e-06  -8e-06  -1e-06
8  0.524098  1.466313  6.127027 -1e-06  -0.0  -0.0
8  1.625783  3.699191  7.367660 0.0  -0.0  1e-06
8  3.425625  5.408669  -0.561990 3e-06  1e-06  1e-06
8  -2.262316  -0.402848  -2.343578 -1e-06  -1e-06  -2e-06
8  4.359842  11.883565  4.581877 0.0  0.0  1e-06
8  4.349973  13.171875  2.290160 0.0  2e-06  -3e-06
1  0.881467  3.215060  7.771918 -5e-06  -2e-06  1e-06
1  1.207540  1.342662  6.812001 7e-06  1e-06  1e-06
1  -2.213160  -0.821066  -1.467846 -2e-06  -1.8e-05  2.5e-05
1  -2.592746  0.075313  -4.347532 -1e-05  2e-06  -3.7e-05
1  1.136216  9.585584  -7.853589 0.001163  -5.5e-05  0.000498
1  0.813799  11.377801  -6.751482 0.001144  0.000665  -0.000422
1  4.304140  13.535608  1.388759 -1e-06  -1.9e-05  3.1e-05
1  4.318527  11.302935  5.361665 -0.0  -5e-06  4e-06
