ATOMS
23  1.985697  5.996766  -0.225995 0.020339  0.018524  0.01039
7  1.465808  5.248419  1.610420 -0.015087  -0.015199  -0.009697
7  2.290065  7.760927  0.765131 -0.075664  0.021943  0.012844
7  0.372438  3.176203  0.943853 -0.053657  0.001441  0.004096
7  2.405861  6.962218  3.064312 -0.052317  0.002078  -0.004962
6  0.927127  3.992390  1.833918 -0.002101  -0.019731  -0.007355
6  1.879640  5.765256  2.826772 -0.020701  -0.010139  -0.008504
6  2.574669  7.878644  2.116466 0.00743  -0.008348  -0.002492
6  2.566406  8.977683  0.161527 0.00764  -0.006503  -0.005508
6  1.018977  3.674618  3.252763 0.056243  -0.027534  -0.013212
6  0.641667  2.543634  3.986040 0.00604  0.010635  0.005371
1  0.202166  1.663949  3.509623 0.030787  -0.011777  0.024635
6  0.878204  2.562204  5.360574 -0.053769  0.052311  0.011081
6  1.433320  3.711168  5.999464 -0.049128  0.040008  0.029469
6  1.825580  4.828382  5.261626 0.016329  0.005484  0.004824
1  2.257216  5.700030  5.759513 0.050286  0.004499  -0.022241
6  1.617996  4.790990  3.878014 0.050016  -0.027685  -0.007054
6  3.075879  9.217393  2.388993 0.152543  -0.053415  -0.029057
6  3.496999  9.844565  3.567916 -0.087443  0.034207  0.013578
1  3.494779  9.301739  4.519615 -0.217501  0.078445  0.038732
6  3.921732  11.173875  3.498436 -0.050047  0.023777  0.01328
6  3.916369  11.875861  2.249636 -0.050044  0.024224  0.013297
6  3.486498  11.242629  1.080669 -0.087337  0.029374  0.022364
1  3.476086  11.773358  0.122230 -0.217272  0.072672  0.047521
6  3.070730  9.908012  1.160470 0.152653  -0.05194  -0.031344
7  1.450745  7.175121  -1.814962 -0.015065  -0.015889  -0.007607
7  0.622139  4.663640  -0.970547 -0.007833  0.010401  0.00541
7  2.388096  9.310874  -1.112708 -0.052008  -0.003188  0.005165
7  0.351398  5.526158  -3.231816 -0.053336  0.004591  -0.001062
6  1.858376  8.484498  -2.008653 -0.020554  -0.012264  -0.003742
6  0.903995  6.712246  -3.000312 -0.001903  -0.016057  -0.013004
6  0.208646  4.598731  -2.291321 -0.005303  -0.001481  0.001604
6  0.219105  3.499215  -0.336637 -0.00528  0.000836  -0.002807
6  1.584619  8.875924  -3.385107 0.05011  -0.020059  -0.020101
6  1.782759  10.078136  -4.073627 0.015755  0.006909  0.002032
1  2.215400  10.958064  -3.591448 0.048712  -0.015727  0.014419
6  1.379182  10.126250  -5.408379 -0.048685  0.044658  0.019014
6  0.822331  8.981485  -6.053533 -0.053274  0.035714  0.038538
6  0.594947  7.796587  -5.353363 0.005337  0.010003  0.006327
1  0.153503  6.930820  -5.853027 0.028533  0.014707  -0.021641
6  0.984047  7.759860  -4.009378 0.056336  -0.025008  -0.017108
6  -0.470694  3.330417  -2.524752 0.049067  -0.026342  -0.013626
6  -1.069547  2.785403  -3.666610 -0.005667  0.003746  0.00142
1  -1.082958  3.315281  -4.621989 -0.003624  0.003666  0.001438
6  -1.656094  1.523548  -3.549287 -0.041788  0.022295  0.013297
6  -1.643891  0.829769  -2.300442 -0.044863  0.023086  0.014176
6  -1.054524  1.377833  -1.163614 -0.004688  0.00218  0.002907
1  -1.047897  0.849814  -0.203942 -0.00221  0.003167  0.003358
6  -0.461744  2.641113  -1.292885 0.050367  -0.025879  -0.016426
8  1.561543  11.289408  -6.130983 0.012706  0.007171  -0.034595
8  0.456576  9.066279  -7.384615 0.020866  -0.029216  0.018677
8  -2.247387  0.943258  -4.633013 0.020849  -0.007668  -0.004272
8  0.524098  1.466313  6.127027 0.020762  0.001316  -0.035762
8  1.625783  3.699191  7.367660 0.013111  -0.026465  0.024911
8  3.425625  5.408669  -0.561990 0.001964  -0.020593  -0.011516
8  -2.262316  -0.402848  -2.343578 0.020322  -0.008607  -0.005508
8  4.359842  11.883565  4.581877 0.076893  -0.01936  -0.008375
8  4.349973  13.171875  2.290160 0.077506  -0.016428  -0.012063
1  0.881467  3.215060  7.771918 0.033434  -0.049159  0.035056
1  1.207540  1.342662  6.812001 0.047188  0.001736  -0.062
1  -2.213160  -0.821066  -1.467846 -2.8e-05  0.00103  0.000222
1  -2.592746  0.075313  -4.347532 -0.019125  0.011699  0.006171
1  1.136216  9.585584  -7.853589 0.04784  -0.051307  0.03323
1  0.813799  11.377801  -6.751482 0.032857  0.004267  -0.059228
1  4.304140  13.535608  1.388759 -0.548998  0.188576  0.102357
1  4.318527  11.302935  5.361665 -0.54465  0.182156  0.108934
