ATOMS
23  1.985697  5.996766  -0.225995 0.000921  0.00098  -0.000169
7  1.465808  5.248419  1.610420 0.013369  0.024046  0.021022
7  2.290065  7.760927  0.765131 -0.011376  -0.031404  -0.011613
7  0.372438  3.176203  0.943853 -0.000101  0.004697  -0.010071
7  2.405861  6.962218  3.064312 -0.003152  -0.008567  0.002895
6  0.927127  3.992390  1.833918 -0.011807  -0.021556  -0.009965
6  1.879640  5.765256  2.826772 -0.009009  -0.015483  -0.018214
6  2.574669  7.878644  2.116466 -0.000285  -0.004656  0.003743
6  2.566406  8.977683  0.161527 0.001552  0.007732  -0.006295
6  1.018977  3.674618  3.252763 -0.002571  -0.006106  0.00249
6  0.641667  2.543634  3.986040 0.002845  0.004006  0.007827
1  0.202166  1.663949  3.509623 0.007672  0.028854  -0.042212
6  0.878204  2.562204  5.360574 -0.00235  -0.008272  0.004612
6  1.433320  3.711168  5.999464 -0.003246  -0.002527  -0.013909
6  1.825580  4.828382  5.261626 0.004124  0.009789  -0.001305
1  2.257216  5.700030  5.759513 -0.002352  -0.0312  0.076786
6  1.617996  4.790990  3.878014 0.000428  0.002145  -0.007624
6  3.075879  9.217393  2.388993 0.013369  0.041717  -0.002704
6  3.496999  9.844565  3.567916 0.003785  0.015374  -0.00634
1  3.494779  9.301739  4.519615 -0.052185  -0.115227  -0.082275
6  3.921732  11.173875  3.498436 0.004239  0.003306  0.016456
6  3.916369  11.875861  2.249636 0.003027  0.004048  0.008176
6  3.486498  11.242629  1.080669 0.000279  0.001692  -0.000712
1  3.476086  11.773358  0.122230 -0.075872  -0.178206  -0.099613
6  3.070730  9.908012  1.160470 0.013472  0.019719  0.036753
7  1.450745  7.175121  -1.814962 0.005656  0.014373  0.001683
7  0.622139  4.663640  -0.970547 0.000288  -0.016665  0.027094
7  2.388096  9.310874  -1.112708 -0.001274  0.001903  -0.0084
7  0.351398  5.526158  -3.231816 0.003736  0.014304  -0.011133
6  1.858376  8.484498  -2.008653 -0.009706  -0.021817  -0.006942
6  0.903995  6.712246  -3.000312 -2.9e-05  0.010309  -0.010543
6  0.208646  4.598731  -2.291321 -0.007162  -0.007099  -0.011678
6  0.219105  3.499215  -0.336637 0.000878  0.007001  -0.007196
6  1.584619  8.875924  -3.385107 -0.00064  -0.006595  0.003652
6  1.782759  10.078136  -4.073627 0.000925  0.00296  -0.000447
1  2.215400  10.958064  -3.591448 -0.005916  0.046574  -0.074071
6  1.379182  10.126250  -5.408379 -0.000982  -0.003768  0.007876
6  0.822331  8.981485  -6.053533 0.00448  -0.008766  0.012591
6  0.594947  7.796587  -5.353363 0.003795  0.003566  0.009595
1  0.153503  6.930820  -5.853027 -0.001583  0.050552  -0.06532
6  0.984047  7.759860  -4.009378 -0.00263  -0.012442  0.007749
6  -0.470694  3.330417  -2.524752 -0.006466  -0.017957  0.008136
6  -1.069547  2.785403  -3.666610 0.00603  0.042393  -0.051291
1  -1.082958  3.315281  -4.621989 0.139821  0.250001  0.057899
6  -1.656094  1.523548  -3.549287 0.001115  -0.017815  0.033927
6  -1.643891  0.829769  -2.300442 -0.008554  -0.072667  0.099583
6  -1.054524  1.377833  -1.163614 -0.017392  0.017481  -0.094743
1  -1.047897  0.849814  -0.203942 -0.216461  -0.280008  -0.266953
6  -0.461744  2.641113  -1.292885 0.015722  0.018948  0.02296
8  1.561543  11.289408  -6.130983 0.002694  0.006355  -0.002312
8  0.456576  9.066279  -7.384615 -0.006816  -0.000973  -0.012559
8  -2.247387  0.943258  -4.633013 -0.007252  -0.004962  -0.016889
8  0.524098  1.466313  6.127027 0.001293  0.005934  -0.004093
8  1.625783  3.699191  7.367660 0.001215  0.000328  0.009813
8  3.425625  5.408669  -0.561990 -0.002265  0.000826  0.000706
8  -2.262316  -0.402848  -2.343578 0.047422  0.068427  0.047128
8  4.359842  11.883565  4.581877 -0.005835  -0.010408  -0.012709
8  4.349973  13.171875  2.290160 -0.000679  -0.003506  0.002763
1  0.881467  3.215060  7.771918 0.000864  -0.007207  0.000486
1  1.207540  1.342662  6.812001 0.003363  0.001399  -0.007059
1  -2.213160  -0.821066  -1.467846 -0.367455  -0.594795  -0.26003
1  -2.592746  0.075313  -4.347532 -0.021482  -0.012632  -0.054922
1  1.136216  9.585584  -7.853589 0.027798  0.012695  0.049411
1  0.813799  11.377801  -6.751482 -0.00903  -0.024623  0.005984
1  4.304140  13.535608  1.388759 -0.020493  -0.053393  -0.016698
1  4.318527  11.302935  5.361665 0.007745  0.018714  0.008023
