ATOMS
23  1.985697  5.996766  -0.225995 -0.000256  -0.001796  0.002369
7  1.465808  5.248419  1.610420 0.085356  0.158352  0.074516
7  2.290065  7.760927  0.765131 -0.000149  0.142152  -0.245538
7  0.372438  3.176203  0.943853 -0.001345  -0.0012  -0.015824
7  2.405861  6.962218  3.064312 0.006426  0.02454  -0.02337
6  0.927127  3.992390  1.833918 -0.050407  -0.148513  0.117823
6  1.879640  5.765256  2.826772 -0.034552  -0.006633  -0.201126
6  2.574669  7.878644  2.116466 0.081114  0.10705  0.265142
6  2.566406  8.977683  0.161527 -0.081743  -0.283919  0.037476
6  1.018977  3.674618  3.252763 -0.016545  -0.024656  -0.035747
6  0.641667  2.543634  3.986040 -0.000353  0.025625  -0.072563
1  0.202166  1.663949  3.509623 0.002556  0.085067  -0.180991
6  0.878204  2.562204  5.360574 0.041843  0.122263  -0.040007
6  1.433320  3.711168  5.999464 0.041155  0.022413  0.174228
6  1.825580  4.828382  5.261626 -0.010782  -0.052487  0.091141
1  2.257216  5.700030  5.759513 0.008477  0.064342  -0.123019
6  1.617996  4.790990  3.878014 -0.019062  -0.048603  0.008224
6  3.075879  9.217393  2.388993 -0.025246  -0.118792  0.08941
6  3.496999  9.844565  3.567916 -0.038373  -0.042166  -0.132735
1  3.494779  9.301739  4.519615 -0.065821  -0.104969  -0.176199
6  3.921732  11.173875  3.498436 -0.027562  -0.045637  -0.066567
6  3.916369  11.875861  2.249636 0.027239  0.071342  0.019795
6  3.486498  11.242629  1.080669 0.035155  0.133763  -0.043399
1  3.476086  11.773358  0.122230 0.066157  0.212057  -0.009494
6  3.070730  9.908012  1.160470 0.025233  -0.013484  0.140866
7  1.450745  7.175121  -1.814962 -0.067557  -0.113044  -0.077147
7  0.622139  4.663640  -0.970547 0.001373  -0.017926  0.035039
7  2.388096  9.310874  -1.112708 -0.006315  0.008347  -0.030107
7  0.351398  5.526158  -3.231816 0.002377  0.01552  -0.007831
6  1.858376  8.484498  -2.008653 0.027864  0.139979  -0.076206
6  0.903995  6.712246  -3.000312 0.039866  -0.020011  0.146469
6  0.208646  4.598731  -2.291321 -0.007167  -0.001043  -0.025768
6  0.219105  3.499215  -0.336637 0.005274  0.02388  -0.019774
6  1.584619  8.875924  -3.385107 0.016238  0.013967  0.038751
6  1.782759  10.078136  -4.073627 0.009726  -0.041545  0.076079
1  2.215400  10.958064  -3.591448 -0.010006  0.071754  -0.118783
6  1.379182  10.126250  -5.408379 -0.032468  -0.130207  0.058244
6  0.822331  8.981485  -6.053533 -0.031841  -0.02446  -0.0943
6  0.594947  7.796587  -5.353363 6.6e-05  0.037147  -0.04442
1  0.153503  6.930820  -5.853027 -0.004953  0.105814  -0.161576
6  0.984047  7.759860  -4.009378 0.012517  0.033434  0.002789
6  -0.470694  3.330417  -2.524752 -0.000861  0.001773  -0.009144
6  -1.069547  2.785403  -3.666610 -0.001577  -0.008017  0.009344
1  -1.082958  3.315281  -4.621989 0.036087  0.047313  0.04046
6  -1.656094  1.523548  -3.549287 -0.001301  0.001221  -0.006268
6  -1.643891  0.829769  -2.300442 0.001688  0.00306  0.000266
6  -1.054524  1.377833  -1.163614 -0.000709  -0.005845  0.006766
1  -1.047897  0.849814  -0.203942 -0.031708  -0.051363  -0.017909
6  -0.461744  2.641113  -1.292885 -0.000302  0.006314  -0.009367
8  1.561543  11.289408  -6.130983 0.016955  0.086261  -0.047209
8  0.456576  9.066279  -7.384615 0.009956  -0.002736  0.055777
8  -2.247387  0.943258  -4.633013 0.00214  0.002892  0.002448
8  0.524098  1.466313  6.127027 -0.014686  -0.063005  0.04228
8  1.625783  3.699191  7.367660 -0.021916  -0.005877  -0.120299
8  3.425625  5.408669  -0.561990 0.000313  0.000421  -0.000776
8  -2.262316  -0.402848  -2.343578 -0.000802  -0.002586  0.001783
8  4.359842  11.883565  4.581877 0.02206  0.040716  0.045444
8  4.349973  13.171875  2.290160 -0.017158  -0.050199  -0.002733
1  0.881467  3.215060  7.771918 0.04075  0.092993  0.100037
1  1.207540  1.342662  6.812001 -0.031532  -0.009605  0.068404
1  -2.213160  -0.821066  -1.467846 -0.008673  -0.015316  -0.003923
1  -2.592746  0.075313  -4.347532 0.009199  0.00582  0.021481
1  1.136216  9.585584  -7.853589 0.034354  -0.039916  0.048505
1  0.813799  11.377801  -6.751482 -0.031579  -0.107025  -0.023383
1  4.304140  13.535608  1.388759 -0.047022  -0.126737  -0.032296
1  4.318527  11.302935  5.361665 0.005413  0.005706  0.021103
