ATOMS
23  1.985697  5.996766  -0.225995 -0.004613  0.003587  -0.000205
7  1.465808  5.248419  1.610420 0.216994  -0.093452  -0.026097
7  2.290065  7.760927  0.765131 -0.236431  0.073111  0.039556
7  0.372438  3.176203  0.943853 0.012631  0.000277  -0.004721
7  2.405861  6.962218  3.064312 0.006072  0.004351  0.000601
6  0.927127  3.992390  1.833918 0.109181  -0.04052  -0.023429
6  1.879640  5.765256  2.826772 0.111697  -0.04049  -0.017859
6  2.574669  7.878644  2.116466 -0.111146  0.044396  0.021133
6  2.566406  8.977683  0.161527 -0.110656  0.043301  0.024781
6  1.018977  3.674618  3.252763 0.015328  0.005841  -0.013142
6  0.641667  2.543634  3.986040 -0.088943  0.050764  -0.009112
1  0.202166  1.663949  3.509623 -0.098971  0.057348  -0.011533
6  0.878204  2.562204  5.360574 -0.062417  0.041051  -0.015471
6  1.433320  3.711168  5.999464 -0.05961  0.038265  -0.012347
6  1.825580  4.828382  5.261626 -0.071138  0.045921  -0.003515
1  2.257216  5.700030  5.759513 -0.073542  0.04635  -0.002673
6  1.617996  4.790990  3.878014 0.022166  0.001222  -0.01149
6  3.075879  9.217393  2.388993 -0.014435  0.017681  0.007046
6  3.496999  9.844565  3.567916 0.103132  -0.012867  -0.012958
1  3.494779  9.301739  4.519615 0.127539  -0.019601  -0.016601
6  3.921732  11.173875  3.498436 0.068351  0.000578  -0.001518
6  3.916369  11.875861  2.249636 0.066839  0.002439  -0.000334
6  3.486498  11.242629  1.080669 0.092498  -0.00984  -0.005437
1  3.476086  11.773358  0.122230 0.11081  -0.013194  -0.007635
6  3.070730  9.908012  1.160470 -0.018729  0.019937  0.008529
7  1.450745  7.175121  -1.814962 0.244522  -0.081285  -0.075931
7  0.622139  4.663640  -0.970547 -0.209779  0.107058  0.05775
7  2.388096  9.310874  -1.112708 0.009306  0.002629  -1.2e-05
7  0.351398  5.526158  -3.231816 0.003463  0.00166  0.000955
6  1.858376  8.484498  -2.008653 0.123332  -0.041749  -0.028505
6  0.903995  6.712246  -3.000312 0.125163  -0.047189  -0.027377
6  0.208646  4.598731  -2.291321 -0.114732  0.04791  0.025869
6  0.219105  3.499215  -0.336637 -0.099467  0.043167  0.020908
6  1.584619  8.875924  -3.385107 0.017059  -0.010032  0.011904
6  1.782759  10.078136  -4.073627 -0.097045  0.026453  0.055722
1  2.215400  10.958064  -3.591448 -0.109278  0.030474  0.05866
6  1.379182  10.126250  -5.408379 -0.069762  0.008648  0.049341
6  0.822331  8.981485  -6.053533 -0.066307  0.004998  0.051077
6  0.594947  7.796587  -5.353363 -0.082997  0.012015  0.052402
1  0.153503  6.930820  -5.853027 -0.085806  0.010663  0.057868
6  0.984047  7.759860  -4.009378 0.024995  -0.013303  0.012464
6  -0.470694  3.330417  -2.524752 -0.038693  0.001855  -0.002564
6  -1.069547  2.785403  -3.666610 0.047992  -0.056031  -0.029006
1  -1.082958  3.315281  -4.621989 0.038905  -0.05483  -0.028582
6  -1.656094  1.523548  -3.549287 0.037414  -0.054746  -0.032611
6  -1.643891  0.829769  -2.300442 0.041825  -0.054353  -0.032816
6  -1.054524  1.377833  -1.163614 0.081697  -0.065316  -0.045007
1  -1.047897  0.849814  -0.203942 0.117964  -0.086401  -0.056585
6  -0.461744  2.641113  -1.292885 -0.022268  -0.005276  -0.005228
8  1.561543  11.289408  -6.130983 0.069851  -0.031549  0.025389
8  0.456576  9.066279  -7.384615 0.049303  -0.053927  0.01769
8  -2.247387  0.943258  -4.633013 -0.059273  -0.019885  -0.001233
8  0.524098  1.466313  6.127027 0.053276  -0.01437  -0.044116
8  1.625783  3.699191  7.367660 0.051255  0.002448  -0.030449
8  3.425625  5.408669  -0.561990 -0.00663  0.005836  -0.009956
8  -2.262316  -0.402848  -2.343578 -0.056381  -0.008743  -0.013958
8  4.359842  11.883565  4.581877 -0.043717  0.044983  0.016504
8  4.349973  13.171875  2.290160 -0.036277  0.037636  0.031551
1  0.881467  3.215060  7.771918 0.11067  -0.042828  0.024244
1  1.207540  1.342662  6.812001 0.108611  -0.001182  -0.097329
1  -2.213160  -0.821066  -1.467846 -0.41873  0.158946  0.086595
1  -2.592746  0.075313  -4.347532 -0.140758  0.024044  0.034667
1  1.136216  9.585584  -7.853589 0.106956  -0.099455  0.05157
1  0.813799  11.377801  -6.751482 0.142182  0.002643  -0.056466
1  4.304140  13.535608  1.388759 -0.106677  0.071983  0.048848
1  4.318527  11.302935  5.361665 -0.113721  0.074298  0.034777
