ATOMS
23  1.985697  5.996766  -0.225995 -0.00064  -0.000197  -0.000119
7  1.465808  5.248419  1.610420 -0.023479  -0.024047  -0.016066
7  2.290065  7.760927  0.765131 -0.116391  0.016807  0.00645
7  0.372438  3.176203  0.943853 0.028678  -0.042699  -0.021502
7  2.405861  6.962218  3.064312 -0.062599  -0.001741  -0.009265
6  0.927127  3.992390  1.833918 -0.021627  -0.025188  -0.005991
6  1.879640  5.765256  2.826772 -0.020655  -0.016844  -0.022808
6  2.574669  7.878644  2.116466 -0.114859  0.017418  0.003784
6  2.566406  8.977683  0.161527 -0.113287  0.015511  0.009503
6  1.018977  3.674618  3.252763 -0.043385  -0.000595  0.007917
6  0.641667  2.543634  3.986040 -0.097126  0.048366  0.059514
1  0.202166  1.663949  3.509623 -0.179142  0.062671  0.108468
6  0.878204  2.562204  5.360574 -0.050115  0.072042  0.054082
6  1.433320  3.711168  5.999464 0.101434  0.027739  0.00177
6  1.825580  4.828382  5.261626 0.108051  -0.004738  -0.038495
1  2.257216  5.700030  5.759513 0.193316  -0.020188  -0.085744
6  1.617996  4.790990  3.878014 0.013613  -0.014876  -0.021714
6  3.075879  9.217393  2.388993 -0.132368  0.020918  0.01032
6  3.496999  9.844565  3.567916 -0.079207  -0.001837  0.002408
1  3.494779  9.301739  4.519615 -0.063521  -0.01003  -0.002286
6  3.921732  11.173875  3.498436 -0.011075  -0.024463  -0.007509
6  3.916369  11.875861  2.249636 -0.021021  -0.018327  -0.00406
6  3.486498  11.242629  1.080669 -0.09063  0.008492  0.006817
1  3.476086  11.773358  0.122230 -0.08333  0.009634  0.007403
6  3.070730  9.908012  1.160470 -0.135213  0.023258  0.012667
7  1.450745  7.175121  -1.814962 -0.006092  -0.030455  -0.021009
7  0.622139  4.663640  -0.970547 0.087045  -0.065543  -0.040964
7  2.388096  9.310874  -1.112708 -0.053971  -0.008967  -0.002404
7  0.351398  5.526158  -3.231816 0.035147  -0.041057  -0.032244
6  1.858376  8.484498  -2.008653 -0.003719  -0.03182  -0.010842
6  0.903995  6.712246  -3.000312 -0.005015  -0.022669  -0.027238
6  0.208646  4.598731  -2.291321 0.084638  -0.063238  -0.042721
6  0.219105  3.499215  -0.336637 0.086408  -0.065445  -0.036966
6  1.584619  8.875924  -3.385107 0.032529  -0.030835  -0.010885
6  1.782759  10.078136  -4.073627 0.117477  -0.036273  0.008427
1  2.215400  10.958064  -3.591448 0.199294  -0.083261  0.020396
6  1.379182  10.126250  -5.408379 0.100729  0.018553  0.018478
6  0.822331  8.981485  -6.053533 -0.047708  0.084976  0.029051
6  0.594947  7.796587  -5.353363 -0.083461  0.073034  0.003163
1  0.153503  6.930820  -5.853027 -0.165383  0.121958  -0.009505
6  0.984047  7.759860  -4.009378 -0.023427  0.001151  -0.014056
6  -0.470694  3.330417  -2.524752 0.099175  -0.072732  -0.043493
6  -1.069547  2.785403  -3.666610 0.045577  -0.051991  -0.026338
1  -1.082958  3.315281  -4.621989 0.024222  -0.044785  -0.022092
6  -1.656094  1.523548  -3.549287 -0.013843  -0.022883  -0.006492
6  -1.643891  0.829769  -2.300442 0.002797  -0.027892  -0.009457
6  -1.054524  1.377833  -1.163614 0.068373  -0.055975  -0.030125
1  -1.047897  0.849814  -0.203942 0.067561  -0.051679  -0.02773
6  -0.461744  2.641113  -1.292885 0.106377  -0.074655  -0.043608
8  1.561543  11.289408  -6.130983 0.223097  0.00406  0.025015
8  0.456576  9.066279  -7.384615 -0.148746  0.164101  0.061624
8  -2.247387  0.943258  -4.633013 -0.10447  0.017779  0.020849
8  0.524098  1.466313  6.127027 -0.140436  0.135626  0.103864
8  1.625783  3.699191  7.367660 0.239558  0.019847  -0.017444
8  3.425625  5.408669  -0.561990 0.055278  0.097674  0.068569
8  -2.262316  -0.402848  -2.343578 -0.068554  0.006809  0.014405
8  4.359842  11.883565  4.581877 0.084006  -0.059147  -0.023632
8  4.349973  13.171875  2.290160 0.05887  -0.044979  -0.015531
1  0.881467  3.215060  7.771918 0.224254  0.114124  0.067341
1  1.207540  1.342662  6.812001 -0.113063  0.065135  0.063895
1  -2.213160  -0.821066  -1.467846 -0.06893  0.009391  0.015669
1  -2.592746  0.075313  -4.347532 -0.141125  0.036824  0.034426
1  1.136216  9.585584  -7.853589 -0.131764  0.104348  0.01993
1  0.813799  11.377801  -6.751482 0.199085  0.123887  0.071006
1  4.304140  13.535608  1.388759 0.053806  -0.040795  -0.013574
1  4.318527  11.302935  5.361665 0.091383  -0.064023  -0.026879
