ATOMS
23  1.985697  5.996766  -0.225995 0.000467  0.00479  0.004482
7  1.465808  5.248419  1.610420 0.002167  -0.08548  -0.041524
7  2.290065  7.760927  0.765131 0.006577  0.04169  -0.075065
7  0.372438  3.176203  0.943853 -0.03616  -0.101947  0.032417
7  2.405861  6.962218  3.064312 -0.037058  -0.02488  -0.107818
6  0.927127  3.992390  1.833918 -0.020419  -0.058775  0.006264
6  1.879640  5.765256  2.826772 -0.021813  -0.024699  -0.052174
6  2.574669  7.878644  2.116466 -0.00841  -0.003697  -0.060163
6  2.566406  8.977683  0.161527 0.009699  0.055136  -0.028628
6  1.018977  3.674618  3.252763 -0.008353  0.066327  0.032085
6  0.641667  2.543634  3.986040 0.050298  0.087214  0.030382
1  0.202166  1.663949  3.509623 0.049414  0.070252  0.065767
6  0.878204  2.562204  5.360574 0.086841  0.087988  0.003422
6  1.433320  3.711168  5.999464 0.081221  0.049714  0.076837
6  1.825580  4.828382  5.261626 0.050276  0.07327  0.058464
1  2.257216  5.700030  5.759513 0.055075  0.091973  0.024496
6  1.617996  4.790990  3.878014 -0.00972  0.065452  0.034912
6  3.075879  9.217393  2.388993 -0.001263  -0.030872  0.058199
6  3.496999  9.844565  3.567916 0.001469  -0.03663  0.099519
1  3.494779  9.301739  4.519615 -0.00857  -0.055046  0.088811
6  3.921732  11.173875  3.498436 0.012941  -0.01975  0.103858
6  3.916369  11.875861  2.249636 -0.010482  -0.082843  0.068449
6  3.486498  11.242629  1.080669 0.000255  -0.067741  0.080275
1  3.476086  11.773358  0.122230 0.010917  -0.049719  0.090049
6  3.070730  9.908012  1.160470 -0.001141  -0.03279  0.056977
7  1.450745  7.175121  -1.814962 0.008968  0.078444  0.048534
7  0.622139  4.663640  -0.970547 0.005893  -0.042471  0.069838
7  2.388096  9.310874  -1.112708 0.028349  0.109811  -0.033507
7  0.351398  5.526158  -3.231816 0.026845  0.029205  0.108244
6  1.858376  8.484498  -2.008653 0.023735  0.057979  -0.007623
6  0.903995  6.712246  -3.000312 0.022017  0.024693  0.053657
6  0.208646  4.598731  -2.291321 0.007346  0.004935  0.058988
6  0.219105  3.499215  -0.336637 -0.005489  -0.053251  0.02485
6  1.584619  8.875924  -3.385107 0.009079  -0.065252  -0.038887
6  1.782759  10.078136  -4.073627 -0.051185  -0.089936  -0.03152
1  2.215400  10.958064  -3.591448 -0.056928  -0.070497  -0.064992
6  1.379182  10.126250  -5.408379 -0.081122  -0.094317  -0.001256
6  0.822331  8.981485  -6.053533 -0.087309  -0.050662  -0.073361
6  0.594947  7.796587  -5.353363 -0.050711  -0.073925  -0.059703
1  0.153503  6.930820  -5.853027 -0.049505  -0.095258  -0.026904
6  0.984047  7.759860  -4.009378 0.007811  -0.063647  -0.040913
6  -0.470694  3.330417  -2.524752 -0.002778  0.02998  -0.057217
6  -1.069547  2.785403  -3.666610 -0.003228  0.028781  -0.097364
1  -1.082958  3.315281  -4.621989 0.01685  0.053407  -0.085447
6  -1.656094  1.523548  -3.549287 -0.01962  0.014098  -0.107245
6  -1.643891  0.829769  -2.300442 0.015896  0.079027  -0.071326
6  -1.054524  1.377833  -1.163614 0.000524  0.066514  -0.081652
1  -1.047897  0.849814  -0.203942 -0.016254  0.048842  -0.091092
6  -0.461744  2.641113  -1.292885 0.001553  0.032383  -0.056686
8  1.561543  11.289408  -6.130983 0.046309  -0.04349  0.140915
8  0.456576  9.066279  -7.384615 0.023406  0.110579  -0.108863
8  -2.247387  0.943258  -4.633013 -0.070783  -0.121519  -0.024244
8  0.524098  1.466313  6.127027 -0.024205  0.036781  -0.148016
8  1.625783  3.699191  7.367660 -0.044545  -0.096746  0.107517
8  3.425625  5.408669  -0.561990 -0.003965  -0.006213  0.006706
8  -2.262316  -0.402848  -2.343578 0.064615  0.06557  0.102839
8  4.359842  11.883565  4.581877 0.046128  0.126055  0.01161
8  4.349973  13.171875  2.290160 -0.048587  -0.079661  -0.10243
1  0.881467  3.215060  7.771918 -0.11752  -0.11541  -0.046867
1  1.207540  1.342662  6.812001 -0.11383  -0.090315  -0.082785
1  -2.213160  -0.821066  -1.467846 0.14525  0.192014  0.158421
1  -2.592746  0.075313  -4.347532 -0.020038  -0.099058  0.11027
1  1.136216  9.585584  -7.853589 0.115232  0.121883  0.034838
1  0.813799  11.377801  -6.751482 0.118712  0.10059  0.075719
1  4.304140  13.535608  1.388759 -0.10621  -0.215707  -0.154047
1  4.318527  11.302935  5.361665 0.085584  0.247844  0.104765
