ATOMS
23  1.985697  5.996766  -0.225995 -0.015391  -0.051211  -0.02852
7  1.465808  5.248419  1.610420 -0.019922  0.04286  0.016074
7  2.290065  7.760927  0.765131 0.06306  -0.028381  -0.016551
7  0.372438  3.176203  0.943853 -0.052008  0.055158  0.023137
7  2.405861  6.962218  3.064312 -0.050288  0.045891  0.028694
6  0.927127  3.992390  1.833918 -0.006808  0.036193  0.011907
6  1.879640  5.765256  2.826772 0.031169  0.013357  0.01424
6  2.574669  7.878644  2.116466 -0.014342  0.010603  -0.00047
6  2.566406  8.977683  0.161527 -0.014259  0.005407  0.009146
6  1.018977  3.674618  3.252763 0.099026  -0.032582  -0.010909
6  0.641667  2.543634  3.986040 7.5e-05  -0.012147  -0.014404
1  0.202166  1.663949  3.509623 0.019343  -0.004198  -0.047749
6  0.878204  2.562204  5.360574 -0.105372  0.005559  0.008139
6  1.433320  3.711168  5.999464 -0.114699  0.018917  -0.00707
6  1.825580  4.828382  5.261626 -0.029024  -0.009712  0.002982
1  2.257216  5.700030  5.759513 -0.026585  -0.027805  0.031896
6  1.617996  4.790990  3.878014 0.107488  -0.037381  -0.010808
6  3.075879  9.217393  2.388993 -0.025785  0.011702  0.004067
6  3.496999  9.844565  3.567916 0.047866  -0.018823  -0.007587
1  3.494779  9.301739  4.519615 0.100131  -0.037817  -0.018462
6  3.921732  11.173875  3.498436 -0.003345  -0.002777  -0.001292
6  3.916369  11.875861  2.249636 -0.00332  -0.002969  -0.001366
6  3.486498  11.242629  1.080669 0.047572  -0.016252  -0.011996
1  3.476086  11.773358  0.122230 0.098882  -0.034662  -0.022577
6  3.070730  9.908012  1.160470 -0.025789  0.009379  0.008215
7  1.450745  7.175121  -1.814962 -0.020604  0.036375  0.028924
7  0.622139  4.663640  -0.970547 -0.07831  0.031964  0.018291
7  2.388096  9.310874  -1.112708 -0.049961  0.04865  0.024299
7  0.351398  5.526158  -3.231816 -0.052028  0.048493  0.035522
6  1.858376  8.484498  -2.008653 0.03123  0.019351  0.003761
6  0.903995  6.712246  -3.000312 -0.006745  0.029113  0.024943
6  0.208646  4.598731  -2.291321 0.006635  0.000602  -0.004745
6  0.219105  3.499215  -0.336637 0.007226  -0.00373  0.002613
6  1.584619  8.875924  -3.385107 0.108071  -0.028715  -0.027472
6  1.782759  10.078136  -4.073627 -0.029932  -0.002584  -0.009394
1  2.215400  10.958064  -3.591448 -0.028696  0.013043  -0.039699
6  1.379182  10.126250  -5.408379 -0.114643  0.003125  0.020809
6  0.822331  8.981485  -6.053533 -0.105649  0.009375  0.001252
6  0.594947  7.796587  -5.353363 -0.000654  -0.018601  -0.002811
1  0.153503  6.930820  -5.853027 0.017884  -0.04261  0.021543
6  0.984047  7.759860  -4.009378 0.099584  -0.026279  -0.023259
6  -0.470694  3.330417  -2.524752 0.164635  -0.078303  -0.047684
6  -1.069547  2.785403  -3.666610 -0.050914  0.021725  0.015332
1  -1.082958  3.315281  -4.621989 -0.086204  0.037837  0.024624
6  -1.656094  1.523548  -3.549287 -0.126329  0.058104  0.033348
6  -1.643891  0.829769  -2.300442 -0.133472  0.061677  0.035706
6  -1.054524  1.377833  -1.163614 -0.048263  0.023001  0.010596
1  -1.047897  0.849814  -0.203942 -0.085067  0.039829  0.020239
6  -0.461744  2.641113  -1.292885 0.169041  -0.082588  -0.044756
8  1.561543  11.289408  -6.130983 0.044363  -0.02561  0.024006
8  0.456576  9.066279  -7.384615 0.028657  0.019522  -0.040901
8  -2.247387  0.943258  -4.633013 0.060775  -0.033334  -0.020216
8  0.524098  1.466313  6.127027 0.02885  -0.02444  0.037355
8  1.625783  3.699191  7.367660 0.04386  0.007215  -0.034408
8  3.425625  5.408669  -0.561990 0.033733  0.033288  0.018586
8  -2.262316  -0.402848  -2.343578 0.063961  -0.035602  -0.01963
8  4.359842  11.883565  4.581877 -0.041974  0.011423  0.004638
8  4.349973  13.171875  2.290160 -0.04305  0.00975  0.007175
1  0.881467  3.215060  7.771918 0.113361  -0.009315  0.072271
1  1.207540  1.342662  6.812001 0.110468  0.036938  -0.032011
1  -2.213160  -0.821066  -1.467846 -0.020975  0.007138  0.005641
1  -2.592746  0.075313  -4.347532 -0.046025  0.018793  0.009158
1  1.136216  9.585584  -7.853589 0.111917  -0.008191  0.047641
1  0.813799  11.377801  -6.751482 0.112931  0.057336  -0.045823
1  4.304140  13.535608  1.388759 0.502998  -0.169467  -0.092807
1  4.318527  11.302935  5.361665 0.491808  -0.161968  -0.096307
