ATOMS
23  1.985697  5.996766  -0.225995 -1e-05  -4.2e-05  1e-06
7  1.465808  5.248419  1.610420 -1.1e-05  6.9e-05  -0.000417
7  2.290065  7.760927  0.765131 -0.000748  0.001911  -0.008236
7  0.372438  3.176203  0.943853 -0.003001  -0.001295  -0.010568
7  2.405861  6.962218  3.064312 -0.001608  -0.005794  0.002826
6  0.927127  3.992390  1.833918 0.003307  0.004073  0.007433
6  1.879640  5.765256  2.826772 0.000328  0.000661  0.000668
6  2.574669  7.878644  2.116466 0.002405  0.009112  -0.003704
6  2.566406  8.977683  0.161527 0.012787  0.006076  0.049718
6  1.018977  3.674618  3.252763 -0.000136  -0.000788  0.000674
6  0.641667  2.543634  3.986040 -0.000116  0.001333  -0.003853
1  0.202166  1.663949  3.509623 -0.000284  -0.001962  0.00214
6  0.878204  2.562204  5.360574 0.000867  5e-05  0.004271
6  1.433320  3.711168  5.999464 0.00025  0.001213  -0.002902
6  1.825580  4.828382  5.261626 -7.1e-05  -0.00176  0.005004
1  2.257216  5.700030  5.759513 0.00088  0.002783  -0.003661
6  1.617996  4.790990  3.878014 -0.000732  0.000279  -0.00493
6  3.075879  9.217393  2.388993 0.003537  0.015391  -0.007769
6  3.496999  9.844565  3.567916 -0.007679  -0.02299  -0.000706
1  3.494779  9.301739  4.519615 0.007517  0.011891  0.019837
6  3.921732  11.173875  3.498436 0.006823  0.030584  -0.017198
6  3.916369  11.875861  2.249636 -0.00593  -0.023971  0.010449
6  3.486498  11.242629  1.080669 0.014297  0.04031  0.006433
1  3.476086  11.773358  0.122230 -0.017542  -0.033251  -0.034664
6  3.070730  9.908012  1.160470 -0.01752  -0.052958  -0.001034
7  1.450745  7.175121  -1.814962 0.013125  0.024852  0.013655
7  0.622139  4.663640  -0.970547 -0.001244  -0.007547  0.009522
7  2.388096  9.310874  -1.112708 -0.008171  -0.006946  -0.024558
7  0.351398  5.526158  -3.231816 -0.006875  -0.018528  0.005559
6  1.858376  8.484498  -2.008653 -0.003321  0.020715  -0.037567
6  0.903995  6.712246  -3.000312 -0.000593  -0.030491  0.035895
6  0.208646  4.598731  -2.291321 0.014721  0.044161  -0.020127
6  0.219105  3.499215  -0.336637 -0.000412  -0.004684  0.006868
6  1.584619  8.875924  -3.385107 -0.009706  -0.211452  0.210394
6  1.782759  10.078136  -4.073627 -0.031956  0.19361  -0.311096
1  2.215400  10.958064  -3.591448 0.049991  -0.190661  0.310944
6  1.379182  10.126250  -5.408379 0.060779  -0.07264  0.24455
6  0.822331  8.981485  -6.053533 0.022851  0.182088  -0.182281
6  0.594947  7.796587  -5.353363 0.024899  -0.185491  0.315861
1  0.153503  6.930820  -5.853027 -0.004803  0.191415  -0.315592
6  0.984047  7.759860  -4.009378 -0.055153  0.085876  -0.282932
6  -0.470694  3.330417  -2.524752 -0.038197  -0.047034  -0.053118
6  -1.069547  2.785403  -3.666610 0.042917  0.062669  0.042043
1  -1.082958  3.315281  -4.621989 -0.045598  -0.074116  -0.032853
6  -1.656094  1.523548  -3.549287 -0.028223  -0.046081  -0.019862
6  -1.643891  0.829769  -2.300442 0.026235  0.026506  0.046861
6  -1.054524  1.377833  -1.163614 -0.036342  -0.05328  -0.035398
1  -1.047897  0.849814  -0.203942 0.036716  0.059787  0.025169
6  -0.461744  2.641113  -1.292885 0.025769  0.043056  0.015748
8  1.561543  11.289408  -6.130983 -0.016235  0.002776  -0.01459
8  0.456576  9.066279  -7.384615 -0.01393  -0.01117  0.010967
8  -2.247387  0.943258  -4.633013 0.002875  0.005433  0.000802
8  0.524098  1.466313  6.127027 -0.000262  -4.3e-05  -0.000296
8  1.625783  3.699191  7.367660 -0.000108  -6.4e-05  0.00026
8  3.425625  5.408669  -0.561990 2.5e-05  0.000104  6.1e-05
8  -2.262316  -0.402848  -2.343578 -0.002909  -0.00331  -0.004568
8  4.359842  11.883565  4.581877 -0.00099  -0.003998  0.001735
8  4.349973  13.171875  2.290160 0.0003  0.002298  -0.002531
1  0.881467  3.215060  7.771918 0.00084  -0.000299  0.001319
1  1.207540  1.342662  6.812001 0.001925  0.002336  -0.001676
1  -2.213160  -0.821066  -1.467846 0.019067  0.031988  0.011872
1  -2.592746  0.075313  -4.347532 0.011453  0.00543  0.031508
1  1.136216  9.585584  -7.853589 0.117456  -0.032933  0.140482
1  0.813799  11.377801  -6.751482 0.09798  0.124445  -0.104439
1  4.304140  13.535608  1.388759 0.008333  0.02151  0.006891
1  4.318527  11.302935  5.361665 0.012939  0.026297  0.022782
