ATOMS
23  1.985697  5.996766  -0.225995 0.000761  0.001624  0.001069
7  1.465808  5.248419  1.610420 0.039813  0.078912  0.01824
7  2.290065  7.760927  0.765131 -0.014938  -0.032504  -0.019879
7  0.372438  3.176203  0.943853 -0.011508  -0.013117  -0.028086
7  2.405861  6.962218  3.064312 -0.004403  -0.008939  -0.001347
6  0.927127  3.992390  1.833918 -0.027997  -0.052332  -0.016094
6  1.879640  5.765256  2.826772 -0.01693  -0.029557  -0.031761
6  2.574669  7.878644  2.116466 0.000555  -0.008093  0.01036
6  2.566406  8.977683  0.161527 0.000432  0.003668  -0.011249
6  1.018977  3.674618  3.252763 0.002493  -0.007557  0.03687
6  0.641667  2.543634  3.986040 0.005752  0.004256  0.023586
1  0.202166  1.663949  3.509623 0.023548  0.122505  -0.209826
6  0.878204  2.562204  5.360574 -0.013371  -0.033633  0.018437
6  1.433320  3.711168  5.999464 -0.002751  -0.012916  -0.009886
6  1.825580  4.828382  5.261626 0.006394  0.016257  0.00115
1  2.257216  5.700030  5.759513 0.014009  0.036527  -0.039759
6  1.617996  4.790990  3.878014 -0.00431  -0.012837  0.001952
6  3.075879  9.217393  2.388993 0.019087  0.060192  -0.003506
6  3.496999  9.844565  3.567916 0.001823  0.008625  -0.005015
1  3.494779  9.301739  4.519615 -0.085528  -0.195138  -0.12246
6  3.921732  11.173875  3.498436 0.005257  0.009041  0.01136
6  3.916369  11.875861  2.249636 0.005045  0.013077  0.003166
6  3.486498  11.242629  1.080669 0.001518  0.00017  0.008149
1  3.476086  11.773358  0.122230 -0.086554  -0.208172  -0.105393
6  3.070730  9.908012  1.160470 0.019226  0.02813  0.052821
7  1.450745  7.175121  -1.814962 0.041574  0.059253  0.059962
7  0.622139  4.663640  -0.970547 -0.044733  -0.061522  -0.043385
7  2.388096  9.310874  -1.112708 -0.004278  -0.005728  -0.005986
7  0.351398  5.526158  -3.231816 -0.011144  -0.033268  0.008334
6  1.858376  8.484498  -2.008653 -0.016931  -0.04459  -0.00706
6  0.903995  6.712246  -3.000312 -0.031008  -0.046708  -0.038664
6  0.208646  4.598731  -2.291321 -0.002387  -0.018317  0.027452
6  0.219105  3.499215  -0.336637 -0.003591  0.010598  -0.026893
6  1.584619  8.875924  -3.385107 -0.005101  -0.00492  -0.014459
6  1.782759  10.078136  -4.073627 0.00696  0.010511  0.013806
1  2.215400  10.958064  -3.591448 0.016033  -0.019832  0.062419
6  1.379182  10.126250  -5.408379 -0.00278  -0.015206  -0.007596
6  0.822331  8.981485  -6.053533 -0.014645  -0.000341  -0.041133
6  0.594947  7.796587  -5.353363 0.005833  0.023356  -0.009202
1  0.153503  6.930820  -5.853027 0.028364  -0.130457  0.23857
6  0.984047  7.759860  -4.009378 0.002259  0.030527  -0.028938
6  -0.470694  3.330417  -2.524752 0.053022  0.110382  -0.00349
6  -1.069547  2.785403  -3.666610 0.00763  0.006027  0.01467
1  -1.082958  3.315281  -4.621989 -0.327709  -0.503877  -0.264527
6  -1.656094  1.523548  -3.549287 0.019952  0.035663  0.00997
6  -1.643891  0.829769  -2.300442 0.021261  0.054361  -0.018893
6  -1.054524  1.377833  -1.163614 0.013482  0.003707  0.040774
1  -1.047897  0.849814  -0.203942 -0.201063  -0.324705  -0.135638
6  -0.461744  2.641113  -1.292885 0.046114  0.043237  0.089117
8  1.561543  11.289408  -6.130983 -0.004205  0.00163  -0.00227
8  0.456576  9.066279  -7.384615 0.010512  -0.000178  0.034168
8  -2.247387  0.943258  -4.633013 -0.016296  -0.013642  -0.034142
8  0.524098  1.466313  6.127027 0.00895  0.026576  -0.016551
8  1.625783  3.699191  7.367660 -0.003569  -0.000882  0.003787
8  3.425625  5.408669  -0.561990 0.000719  0.000482  0.000201
8  -2.262316  -0.402848  -2.343578 -0.025569  -0.04833  -0.006465
8  4.359842  11.883565  4.581877 -0.004891  -0.00786  -0.011972
8  4.349973  13.171875  2.290160 -0.004307  -0.012938  -2.2e-05
1  0.881467  3.215060  7.771918 0.026274  0.001439  0.057982
1  1.207540  1.342662  6.812001 -0.005792  -0.02332  -0.012695
1  -2.213160  -0.821066  -1.467846 0.039028  0.055141  0.043134
1  -2.592746  0.075313  -4.347532 0.041242  0.011058  0.12599
1  1.136216  9.585584  -7.853589 -0.009816  -0.025562  -0.020103
1  0.813799  11.377801  -6.751482 0.028575  0.056872  -0.031214
1  4.304140  13.535608  1.388759 -0.00659  -0.019688  -0.001849
1  4.318527  11.302935  5.361665 -0.004162  -0.006358  -0.011903
