ATOMS
23  1.985697  5.996766  -0.225995 0.001358  0.000255  0.00053
7  1.465808  5.248419  1.610420 0.011288  0.049097  -0.101489
7  2.290065  7.760927  0.765131 0.041142  0.108925  0.060809
7  0.372438  3.176203  0.943853 -0.00759  -0.009277  -0.010215
7  2.405861  6.962218  3.064312 0.00176  0.008836  -0.007169
6  0.927127  3.992390  1.833918 -0.032164  -0.082526  0.040044
6  1.879640  5.765256  2.826772 0.016793  0.000557  0.112393
6  2.574669  7.878644  2.116466 -0.034047  -0.060404  -0.080536
6  2.566406  8.977683  0.161527 -0.039493  -0.106439  -0.026929
6  1.018977  3.674618  3.252763 -0.000801  -0.006445  0.010475
6  0.641667  2.543634  3.986040 0.002522  0.014665  -0.023905
1  0.202166  1.663949  3.509623 -0.001564  -0.025414  0.058748
6  0.878204  2.562204  5.360574 0.009196  0.04049  -0.013847
6  1.433320  3.711168  5.999464 0.001055  -0.004003  -0.038085
6  1.825580  4.828382  5.261626 -0.002421  0.007324  -0.039234
1  2.257216  5.700030  5.759513 -0.012335  -0.055201  0.072444
6  1.617996  4.790990  3.878014 0.004138  0.007388  0.008656
6  3.075879  9.217393  2.388993 -0.009334  -0.033529  0.009081
6  3.496999  9.844565  3.567916 0.014183  0.021529  0.038404
1  3.494779  9.301739  4.519615 -0.083661  -0.208015  -0.084787
6  3.921732  11.173875  3.498436 0.02683  0.054458  0.046949
6  3.916369  11.875861  2.249636 0.029481  0.077892  0.020151
6  3.486498  11.242629  1.080669 0.014956  0.049331  -0.005876
1  3.476086  11.773358  0.122230 -0.073208  -0.151779  -0.125509
6  3.070730  9.908012  1.160470 -0.009888  -0.016967  -0.02267
7  1.450745  7.175121  -1.814962 0.012863  -0.04216  0.075244
7  0.622139  4.663640  -0.970547 -0.099596  -0.146547  -0.069898
7  2.388096  9.310874  -1.112708 0.002442  0.000271  0.012238
7  0.351398  5.526158  -3.231816 -0.007998  -0.024387  0.012426
6  1.858376  8.484498  -2.008653 0.01361  0.078078  -0.043481
6  0.903995  6.712246  -3.000312 -0.034969  -0.025077  -0.076777
6  0.208646  4.598731  -2.291321 0.065201  0.088665  0.076801
6  0.219105  3.499215  -0.336637 0.07545  0.147611  0.005887
6  1.584619  8.875924  -3.385107 0.012649  0.013918  0.025907
6  1.782759  10.078136  -4.073627 -0.003396  -0.013553  0.004422
1  2.215400  10.958064  -3.591448 -0.003519  -0.009089  -0.005673
6  1.379182  10.126250  -5.408379 0.004534  0.001115  0.003902
6  0.822331  8.981485  -6.053533 0.002634  0.002548  0.008583
6  0.594947  7.796587  -5.353363 -0.00183  -0.004127  -0.001186
1  0.153503  6.930820  -5.853027 -0.001254  -0.008412  0.005227
6  0.984047  7.759860  -4.009378 -0.002535  -0.008641  0.001071
6  -0.470694  3.330417  -2.524752 0.050467  0.098648  0.007961
6  -1.069547  2.785403  -3.666610 -0.032001  -0.043917  -0.036504
1  -1.082958  3.315281  -4.621989 0.05004  0.087929  0.024174
6  -1.656094  1.523548  -3.549287 -0.090925  -0.067007  -0.204897
6  -1.643891  0.829769  -2.300442 -0.05238  -0.059159  -0.082521
6  -1.054524  1.377833  -1.163614 -0.035728  -0.092686  0.036326
1  -1.047897  0.849814  -0.203942 0.25999  0.35727  0.294948
6  -0.461744  2.641113  -1.292885 0.021195  0.00867  0.059873
8  1.561543  11.289408  -6.130983 -0.004277  -0.002073  -0.002817
8  0.456576  9.066279  -7.384615 -0.000663  0.000654  -0.004319
8  -2.247387  0.943258  -4.633013 0.058648  0.050249  0.120198
8  0.524098  1.466313  6.127027 0.001513  -0.013087  0.015747
8  1.625783  3.699191  7.367660 -0.008584  -0.008698  0.016032
8  3.425625  5.408669  -0.561990 0.000256  -4.7e-05  7.2e-05
8  -2.262316  -0.402848  -2.343578 0.03955  0.054942  0.043818
8  4.359842  11.883565  4.581877 -0.017004  -0.031075  -0.035805
8  4.349973  13.171875  2.290160 -0.017501  -0.049968  -0.005486
1  0.881467  3.215060  7.771918 0.056266  0.020846  0.160275
1  1.207540  1.342662  6.812001 -0.046502  -0.095859  0.044992
1  -2.213160  -0.821066  -1.467846 -0.207565  -0.336889  -0.145819
1  -2.592746  0.075313  -4.347532 -0.03344  0.011081  -0.137589
1  1.136216  9.585584  -7.853589 -0.003786  -0.002687  -0.011992
1  0.813799  11.377801  -6.751482 0.021729  0.053621  -0.023444
1  4.304140  13.535608  1.388759 0.005318  0.004274  0.019763
1  4.318527  11.302935  5.361665 0.01814  0.04538  0.0167
