ATOMS
23  1.985697  5.996766  -0.225995 0.001659  0.003403  0.001327
7  1.465808  5.248419  1.610420 0.035452  0.064992  0.04275
7  2.290065  7.760927  0.765131 -0.006638  -0.013386  -0.02467
7  0.372438  3.176203  0.943853 -0.014954  0.053584  -0.161838
7  2.405861  6.962218  3.064312 -0.040525  -0.165452  0.119484
6  0.927127  3.992390  1.833918 -0.059594  -0.090101  -0.09959
6  1.879640  5.765256  2.826772 -0.001315  0.002063  -0.01594
6  2.574669  7.878644  2.116466 0.050327  0.265962  -0.235725
6  2.566406  8.977683  0.161527 0.055082  -0.072098  0.373789
6  1.018977  3.674618  3.252763 0.015254  0.010659  0.05742
6  0.641667  2.543634  3.986040 0.003723  -0.005991  0.035799
1  0.202166  1.663949  3.509623 0.005071  0.028044  -0.018564
6  0.878204  2.562204  5.360574 -0.00811  0.017257  -0.071112
6  1.433320  3.711168  5.999464 -0.01551  -0.045436  0.059676
6  1.825580  4.828382  5.261626 0.012019  0.035628  -0.031508
1  2.257216  5.700030  5.759513 -0.001602  -0.012364  0.076222
6  1.617996  4.790990  3.878014 0.000505  0.008509  -0.015402
6  3.075879  9.217393  2.388993 -0.016907  -0.092383  0.072297
6  3.496999  9.844565  3.567916 0.010946  0.036401  -0.005839
1  3.494779  9.301739  4.519615 -0.048908  -0.099131  -0.088189
6  3.921732  11.173875  3.498436 -0.009661  -0.013576  -0.027023
6  3.916369  11.875861  2.249636 2.8e-05  -0.011066  0.019685
6  3.486498  11.242629  1.080669 0.004026  -0.001019  0.022167
1  3.476086  11.773358  0.122230 -0.039473  -0.102552  -0.030331
6  3.070730  9.908012  1.160470 -0.019978  0.014733  -0.127617
7  1.450745  7.175121  -1.814962 0.034411  0.059618  0.039495
7  0.622139  4.663640  -0.970547 -0.013867  -0.00659  -0.028233
7  2.388096  9.310874  -1.112708 -0.013129  0.057293  -0.149996
7  0.351398  5.526158  -3.231816 -0.036372  -0.154298  0.109541
6  1.858376  8.484498  -2.008653 -0.060446  -0.092403  -0.097579
6  0.903995  6.712246  -3.000312 0.000656  0.015708  -0.017348
6  0.208646  4.598731  -2.291321 0.040085  0.224458  -0.225648
6  0.219105  3.499215  -0.336637 0.073932  -0.057633  0.395329
6  1.584619  8.875924  -3.385107 0.019903  0.013681  0.052673
6  1.782759  10.078136  -4.073627 0.006888  -0.00837  0.028853
1  2.215400  10.958064  -3.591448 -0.001518  0.022581  -0.012692
6  1.379182  10.126250  -5.408379 -0.015194  0.017753  -0.058709
6  0.822331  8.981485  -6.053533 -0.004189  -0.041826  0.050023
6  0.594947  7.796587  -5.353363 0.004175  0.03439  -0.029202
1  0.153503  6.930820  -5.853027 0.009013  -0.020617  0.071532
6  0.984047  7.759860  -4.009378 -0.000791  0.001234  -0.008326
6  -0.470694  3.330417  -2.524752 0.003228  -0.048271  0.094507
6  -1.069547  2.785403  -3.666610 0.019268  0.053071  -0.023437
1  -1.082958  3.315281  -4.621989 -0.063097  -0.068634  -0.102478
6  -1.656094  1.523548  -3.549287 -0.045862  -0.071294  -0.038519
6  -1.643891  0.829769  -2.300442 0.018175  0.003907  0.057101
6  -1.054524  1.377833  -1.163614 0.010148  0.01782  0.004962
1  -1.047897  0.849814  -0.203942 -0.06618  -0.099533  -0.061709
6  -0.461744  2.641113  -1.292885 -0.056031  -0.038094  -0.134103
8  1.561543  11.289408  -6.130983 0.005335  -0.001347  0.006124
8  0.456576  9.066279  -7.384615 0.004151  0.004758  -0.006385
8  -2.247387  0.943258  -4.633013 0.010814  0.018671  0.005896
8  0.524098  1.466313  6.127027 0.005236  -0.001798  0.007785
8  1.625783  3.699191  7.367660 0.006034  0.005414  -0.007364
8  3.425625  5.408669  -0.561990 0.000142  5e-05  -9.3e-05
8  -2.262316  -0.402848  -2.343578 -0.003735  -0.000587  -0.01198
8  4.359842  11.883565  4.581877 0.002512  0.003178  0.007533
8  4.349973  13.171875  2.290160 0.000689  0.004101  -0.003616
1  0.881467  3.215060  7.771918 -0.036379  0.00707  -0.071231
1  1.207540  1.342662  6.812001 -0.042955  -0.047486  0.040913
1  -2.213160  -0.821066  -1.467846 0.055733  0.094423  0.0326
1  -2.592746  0.075313  -4.347532 0.051138  0.032896  0.12435
1  1.136216  9.585584  -7.853589 -0.038863  0.00957  -0.054805
1  0.813799  11.377801  -6.751482 -0.029955  -0.045437  0.035397
1  4.304140  13.535608  1.388759 0.016897  0.044473  0.012312
1  4.318527  11.302935  5.361665 0.010922  0.02128  0.021292
