ATOMS
23  1.985697  5.996766  -0.225995 0.002032  0.002061  0.005666
7  1.465808  5.248419  1.610420 -0.003296  -0.0069  -0.006569
7  2.290065  7.760927  0.765131 0.000771  0.00026  -0.001098
7  0.372438  3.176203  0.943853 -0.079514  -0.062503  -0.230113
7  2.405861  6.962218  3.064312 -0.021368  -0.065984  0.023999
6  0.927127  3.992390  1.833918 0.08105  0.101992  0.183294
6  1.879640  5.765256  2.826772 0.035457  0.116269  -0.080631
6  2.574669  7.878644  2.116466 -0.022668  -0.045738  -0.036228
6  2.566406  8.977683  0.161527 0.005601  -0.025583  0.064397
6  1.018977  3.674618  3.252763 0.010991  0.041642  -0.050752
6  0.641667  2.543634  3.986040 -0.013052  0.004817  -0.081272
1  0.202166  1.663949  3.509623 -0.016328  -0.068158  0.035272
6  0.878204  2.562204  5.360574 0.014098  -0.036497  0.131989
6  1.433320  3.711168  5.999464 0.014561  0.038085  -0.033117
6  1.825580  4.828382  5.261626 -0.008481  0.001391  -0.061001
1  2.257216  5.700030  5.759513 -0.02453  -0.082216  0.081242
6  1.617996  4.790990  3.878014 -0.019407  -0.086796  0.128108
6  3.075879  9.217393  2.388993 0.037584  0.127041  -0.023842
6  3.496999  9.844565  3.567916 -0.039561  -0.09559  -0.043712
1  3.494779  9.301739  4.519615 0.079284  0.17808  0.112738
6  3.921732  11.173875  3.498436 0.02016  0.040034  0.036386
6  3.916369  11.875861  2.249636 0.041726  0.09138  0.061813
6  3.486498  11.242629  1.080669 -0.042705  -0.082389  -0.082226
1  3.476086  11.773358  0.122230 0.072811  0.188195  0.059497
6  3.070730  9.908012  1.160470 0.013283  -0.013058  0.089157
7  1.450745  7.175121  -1.814962 -0.011154  -0.019519  -0.010608
7  0.622139  4.663640  -0.970547 0.000154  0.008389  -0.010583
7  2.388096  9.310874  -1.112708 -0.047854  -0.038683  -0.138157
7  0.351398  5.526158  -3.231816 0.002674  0.017811  -0.021648
6  1.858376  8.484498  -2.008653 0.054693  0.061432  0.117798
6  0.903995  6.712246  -3.000312 0.026795  0.133103  -0.083328
6  0.208646  4.598731  -2.291321 -0.083093  -0.18833  0.015713
6  0.219105  3.499215  -0.336637 0.037212  -0.003806  0.154518
6  1.584619  8.875924  -3.385107 0.010972  0.057512  -0.027875
6  1.782759  10.078136  -4.073627 -0.031052  0.014324  -0.110121
1  2.215400  10.958064  -3.591448 -0.006478  -0.115868  0.076857
6  1.379182  10.126250  -5.408379 0.039833  -0.060383  0.160589
6  0.822331  8.981485  -6.053533 0.012073  0.055757  -0.037631
6  0.594947  7.796587  -5.353363 -0.020684  0.004152  -0.071697
1  0.153503  6.930820  -5.853027 -0.010872  -0.107361  0.089734
6  0.984047  7.759860  -4.009378 -0.000504  -0.122484  0.14503
6  -0.470694  3.330417  -2.524752 0.120107  0.200225  0.076405
6  -1.069547  2.785403  -3.666610 -0.04113  -0.035716  -0.081751
1  -1.082958  3.315281  -4.621989 0.078921  0.156656  0.006362
6  -1.656094  1.523548  -3.549287 -0.050369  -0.09151  -0.018537
6  -1.643891  0.829769  -2.300442 0.084234  0.093317  0.135353
6  -1.054524  1.377833  -1.163614 -0.046628  -0.04132  -0.094563
1  -1.047897  0.849814  -0.203942 0.039544  0.09961  -0.033322
6  -0.461744  2.641113  -1.292885 -0.036509  -0.08236  0.018334
8  1.561543  11.289408  -6.130983 -0.012116  0.014912  -0.023713
8  0.456576  9.066279  -7.384615 -0.007609  -0.010853  0.002663
8  -2.247387  0.943258  -4.633013 0.011326  0.026391  -0.00582
8  0.524098  1.466313  6.127027 -0.006146  0.010874  -0.019668
8  1.625783  3.699191  7.367660 -0.006456  -0.008499  0.003235
8  3.425625  5.408669  -0.561990 -0.000331  -0.000829  -0.00182
8  -2.262316  -0.402848  -2.343578 -0.020346  -0.029746  -0.019894
8  4.359842  11.883565  4.581877 -0.003683  -0.000778  -0.017897
8  4.349973  13.171875  2.290160 -0.00969  -0.02902  -0.000802
1  0.881467  3.215060  7.771918 0.025154  -0.007955  0.055106
1  1.207540  1.342662  6.812001 0.074518  0.118672  -0.071935
1  -2.213160  -0.821066  -1.467846 0.075351  0.12114  0.05496
1  -2.592746  0.075313  -4.347532 0.07311  0.048294  0.173811
1  1.136216  9.585584  -7.853589 0.043139  -0.016309  0.062244
1  0.813799  11.377801  -6.751482 0.07622  0.168844  -0.093771
1  4.304140  13.535608  1.388759 -0.003315  -0.014566  0.007235
1  4.318527  11.302935  5.361665 -0.025611  -0.048157  -0.052861
