ATOMS
23  1.985697  5.996766  -0.225995 -2e-06  1.6e-05  -5e-06
7  1.465808  5.248419  1.610420 -0.015063  -0.028815  -0.014635
7  2.290065  7.760927  0.765131 8e-06  0.006334  -0.010933
7  0.372438  3.176203  0.943853 -0.006721  -0.011257  -0.004785
7  2.405861  6.962218  3.064312 -0.005251  -0.011404  -0.006752
6  0.927127  3.992390  1.833918 0.017378  0.049724  -0.03344
6  1.879640  5.765256  2.826772 0.009014  0.001298  0.059696
6  2.574669  7.878644  2.116466 0.003109  0.003121  0.011888
6  2.566406  8.977683  0.161527 -0.003083  -0.012128  0.003855
6  1.018977  3.674618  3.252763 -0.0015  -0.019253  0.045619
6  0.641667  2.543634  3.986040 -0.016752  -0.041867  0.020179
1  0.202166  1.663949  3.509623 0.013302  0.08427  -0.242609
6  0.878204  2.562204  5.360574 0.047235  0.059157  0.010556
6  1.433320  3.711168  5.999464 0.04123  0.035133  0.047812
6  1.825580  4.828382  5.261626 -0.010262  -0.00435  -0.047581
1  2.257216  5.700030  5.759513 -0.019904  -0.142613  0.201307
6  1.617996  4.790990  3.878014 0.005639  0.028749  -0.041528
6  3.075879  9.217393  2.388993 0.00028  0.003143  -0.003751
6  3.496999  9.844565  3.567916 -0.000996  -0.003163  0.000271
1  3.494779  9.301739  4.519615 0.007359  0.016122  0.011064
6  3.921732  11.173875  3.498436 -0.002544  -0.00465  -0.005456
6  3.916369  11.875861  2.249636 0.002522  0.007044  0.001167
6  3.486498  11.242629  1.080669 0.00098  0.001355  0.002786
1  3.476086  11.773358  0.122230 -0.007213  -0.017533  -0.007808
6  3.070730  9.908012  1.160470 -0.000321  0.00154  -0.004609
7  1.450745  7.175121  -1.814962 0.014901  0.026595  0.017241
7  0.622139  4.663640  -0.970547 -0.00011  -0.005941  0.010014
7  2.388096  9.310874  -1.112708 0.005327  0.011813  0.006325
7  0.351398  5.526158  -3.231816 0.006721  0.009858  0.007142
6  1.858376  8.484498  -2.008653 -0.008548  -0.050936  0.029193
6  0.903995  6.712246  -3.000312 -0.017907  0.002672  -0.059769
6  0.208646  4.598731  -2.291321 -0.004542  -0.002544  -0.010887
6  0.219105  3.499215  -0.336637 0.004613  0.010916  -0.003437
6  1.584619  8.875924  -3.385107 -0.006173  0.02082  -0.046683
6  1.782759  10.078136  -4.073627 0.009732  0.042484  -0.021272
1  2.215400  10.958064  -3.591448 0.021875  -0.098337  0.226136
6  1.379182  10.126250  -5.408379 -0.041103  -0.06005  -0.003855
6  0.822331  8.981485  -6.053533 -0.048058  -0.041229  -0.044386
6  0.594947  7.796587  -5.353363 0.017361  0.005057  0.046138
1  0.153503  6.930820  -5.853027 -0.015931  0.167438  -0.203222
6  0.984047  7.759860  -4.009378 0.00234  -0.028207  0.040524
6  -0.470694  3.330417  -2.524752 -0.000845  -0.002916  0.002266
6  -1.069547  2.785403  -3.666610 0.001184  0.002487  -0.000127
1  -1.082958  3.315281  -4.621989 -0.005003  -0.007012  -0.005229
6  -1.656094  1.523548  -3.549287 0.00346  0.003706  0.00573
6  -1.643891  0.829769  -2.300442 -0.003474  -0.006942  -0.000174
6  -1.054524  1.377833  -1.163614 -0.00114  -0.001256  -0.001867
1  -1.047897  0.849814  -0.203942 0.00551  0.008811  0.003964
6  -0.461744  2.641113  -1.292885 0.001035  -3.4e-05  0.003566
8  1.561543  11.289408  -6.130983 0.034153  0.045312  -0.002468
8  0.456576  9.066279  -7.384615 0.037064  0.019292  0.034128
8  -2.247387  0.943258  -4.633013 -0.0018  -0.001727  -0.003368
8  0.524098  1.466313  6.127027 -0.036734  -0.039582  0.001534
8  1.625783  3.699191  7.367660 -0.033978  -0.02127  -0.038734
8  3.425625  5.408669  -0.561990 1.1e-05  1e-05  -3.5e-05
8  -2.262316  -0.402848  -2.343578 0.001214  0.002878  -0.000676
8  4.359842  11.883565  4.581877 0.001221  0.002018  0.002927
8  4.349973  13.171875  2.290160 -0.001184  -0.003493  -0.000163
1  0.881467  3.215060  7.771918 0.162063  0.048021  0.377731
1  1.207540  1.342662  6.812001 0.199631  0.309903  -0.156301
1  -2.213160  -0.821066  -1.467846 0.005639  0.009809  0.002621
1  -2.592746  0.075313  -4.347532 0.001544  -0.000127  0.00567
1  1.136216  9.585584  -7.853589 -0.202929  -0.027213  -0.343444
1  0.813799  11.377801  -6.751482 -0.160972  -0.352665  0.157681
1  4.304140  13.535608  1.388759 -0.00085  -0.002849  9.6e-05
1  4.318527  11.302935  5.361665 0.000727  0.001083  0.002242
