ATOMS
23  1.985697  5.996766  -0.225995 0.000116  0.000102  4.6e-05
7  1.465808  5.248419  1.610420 -0.010482  -0.020171  -0.009945
7  2.290065  7.760927  0.765131 0.002094  0.004114  0.002508
7  0.372438  3.176203  0.943853 -0.00637  -0.009333  -0.007803
7  2.405861  6.962218  3.064312 -0.005369  -0.012592  -0.004194
6  0.927127  3.992390  1.833918 0.016763  0.041605  -0.015958
6  1.879640  5.765256  2.826772 0.010695  0.011278  0.043611
6  2.574669  7.878644  2.116466 -0.002572  -0.005039  -0.003088
6  2.566406  8.977683  0.161527 -0.00256  -0.005179  -0.002754
6  1.018977  3.674618  3.252763 -0.006115  -0.027095  0.037075
6  0.641667  2.543634  3.986040 -0.013076  -0.032822  0.019481
1  0.202166  1.663949  3.509623 0.01789  0.099262  -0.253472
6  0.878204  2.562204  5.360574 0.046245  0.059042  0.007453
6  1.433320  3.711168  5.999464 0.040093  0.032535  0.049667
6  1.825580  4.828382  5.261626 -0.007206  -2.1e-05  -0.039107
1  2.257216  5.700030  5.759513 -0.017943  -0.141951  0.218793
6  1.617996  4.790990  3.878014 0.000603  0.017937  -0.043651
6  3.075879  9.217393  2.388993 -0.000697  -0.003674  0.002469
6  3.496999  9.844565  3.567916 0.003954  0.008319  0.006691
1  3.494779  9.301739  4.519615 -0.024326  -0.057578  -0.029844
6  3.921732  11.173875  3.498436 0.004313  0.007099  0.010433
6  3.916369  11.875861  2.249636 0.004275  0.01263  0.000607
6  3.486498  11.242629  1.080669 0.00395  0.010082  0.003603
1  3.476086  11.773358  0.122230 -0.024389  -0.055606  -0.033575
6  3.070730  9.908012  1.160470 -0.000725  0.000189  -0.004386
7  1.450745  7.175121  -1.814962 -0.010109  -0.017859  -0.012027
7  0.622139  4.663640  -0.970547 0.003319  0.005156  0.003486
7  2.388096  9.310874  -1.112708 -0.005425  -0.010002  -0.008849
7  0.351398  5.526158  -3.231816 -0.006343  -0.011371  -0.004114
6  1.858376  8.484498  -2.008653 0.010289  0.041788  -0.01196
6  0.903995  6.712246  -3.000312 0.017161  0.008767  0.043004
6  0.208646  4.598731  -2.291321 -0.003465  -0.004973  -0.00483
6  0.219105  3.499215  -0.336637 -0.002942  -0.005745  -0.001654
6  1.584619  8.875924  -3.385107 0.000842  -0.02835  0.03783
6  1.782759  10.078136  -4.073627 -0.006534  -0.032545  0.020593
1  2.215400  10.958064  -3.591448 -0.019945  0.11384  -0.234114
6  1.379182  10.126250  -5.408379 0.039575  0.059616  0.000731
6  0.822331  8.981485  -6.053533 0.046577  0.038115  0.045539
6  0.594947  7.796587  -5.353363 -0.013366  -0.000886  -0.037325
1  0.153503  6.930820  -5.853027 0.020604  -0.167315  0.220141
6  0.984047  7.759860  -4.009378 -0.006991  0.016291  -0.042321
6  -0.470694  3.330417  -2.524752 -0.001658  -0.00445  0.00204
6  -1.069547  2.785403  -3.666610 0.006951  0.01171  0.004146
1  -1.082958  3.315281  -4.621989 -0.022457  -0.033854  -0.020297
6  -1.656094  1.523548  -3.549287 0.006235  0.002547  0.017608
6  -1.643891  0.829769  -2.300442 0.004827  0.008556  0.002225
6  -1.054524  1.377833  -1.163614 0.005516  0.01029  0.001453
1  -1.047897  0.849814  -0.203942 -0.035572  -0.0526  -0.033921
6  -0.461744  2.641113  -1.292885 -0.001474  -0.000381  -0.004372
8  1.561543  11.289408  -6.130983 -0.03314  -0.045196  0.00345
8  0.456576  9.066279  -7.384615 -0.035909  -0.018215  -0.034491
8  -2.247387  0.943258  -4.633013 -0.005325  -0.006245  -0.007986
8  0.524098  1.466313  6.127027 -0.035997  -0.039702  0.002575
8  1.625783  3.699191  7.367660 -0.03328  -0.020531  -0.039638
8  3.425625  5.408669  -0.561990 -0.000156  -0.000104  -4.7e-05
8  -2.262316  -0.402848  -2.343578 -0.003872  -0.006229  -0.002827
8  4.359842  11.883565  4.581877 -0.003136  -0.005439  -0.007137
8  4.349973  13.171875  2.290160 -0.003114  -0.00895  -0.00091
1  0.881467  3.215060  7.771918 0.158333  0.049808  0.370756
1  1.207540  1.342662  6.812001 0.194287  0.304335  -0.150732
1  -2.213160  -0.821066  -1.467846 0.010008  0.015683  0.007945
1  -2.592746  0.075313  -4.347532 -0.010062  -0.00823  -0.021241
1  1.136216  9.585584  -7.853589 0.195025  0.028761  0.331549
1  0.813799  11.377801  -6.751482 0.155885  0.344836  -0.151192
1  4.304140  13.535608  1.388759 0.000263  -0.000838  0.002924
1  4.318527  11.302935  5.361665 0.000272  0.002148  -0.002154
