ATOMS
23  1.985697  5.996766  -0.225995 -0.015479  -0.034217  -0.003836
7  1.465808  5.248419  1.610420 -0.044719  0.017994  0.009039
7  2.290065  7.760927  0.765131 0.115916  -0.04452  -0.025239
7  0.372438  3.176203  0.943853 -0.160215  0.069788  0.03837
7  2.405861  6.962218  3.064312 0.078179  -0.026696  -0.01734
6  0.927127  3.992390  1.833918 -0.111601  0.049538  0.027049
6  1.879640  5.765256  2.826772 0.028434  -0.007145  -0.005436
6  2.574669  7.878644  2.116466 0.092775  -0.033921  -0.021324
6  2.566406  8.977683  0.161527 0.132882  -0.051192  -0.030389
6  1.018977  3.674618  3.252763 -0.081053  0.044248  0.024693
6  0.641667  2.543634  3.986040 -0.115115  0.064967  0.039478
1  0.202166  1.663949  3.509623 -0.20128  0.097197  0.059431
6  0.878204  2.562204  5.360574 -0.0293  0.037141  0.025409
6  1.433320  3.711168  5.999464 0.096766  -0.010006  0.000552
6  1.825580  4.828382  5.261626 0.11667  -0.026195  -0.012881
1  2.257216  5.700030  5.759513 0.210024  -0.060947  -0.033001
6  1.617996  4.790990  3.878014 0.023835  0.001555  0.000578
6  3.075879  9.217393  2.388993 0.072621  -0.026589  -0.019746
6  3.496999  9.844565  3.567916 -0.01251  0.004296  -0.00565
1  3.494779  9.301739  4.519615 -0.044438  0.017283  0.001683
6  3.921732  11.173875  3.498436 -0.077866  0.025646  0.003209
6  3.916369  11.875861  2.249636 -0.042385  0.010939  -0.005238
6  3.486498  11.242629  1.080669 0.051894  -0.023134  -0.021267
1  3.476086  11.773358  0.122230 0.06922  -0.031895  -0.0263
6  3.070730  9.908012  1.160470 0.102118  -0.039054  -0.026562
7  1.450745  7.175121  -1.814962 0.042979  -0.017999  -0.011672
7  0.622139  4.663640  -0.970547 -0.114126  0.049159  0.028305
7  2.388096  9.310874  -1.112708 0.146712  -0.056152  -0.033187
7  0.351398  5.526158  -3.231816 -0.059653  0.028914  0.01389
6  1.858376  8.484498  -2.008653 0.104105  -0.039076  -0.02333
6  0.903995  6.712246  -3.000312 -0.016852  0.010867  0.004371
6  0.208646  4.598731  -2.291321 -0.081363  0.036676  0.018637
6  0.219105  3.499215  -0.336637 -0.14024  0.060615  0.033231
6  1.584619  8.875924  -3.385107 0.081828  -0.023341  -0.013728
6  1.782759  10.078136  -4.073627 0.115615  -0.028577  -0.012723
1  2.215400  10.958064  -3.591448 0.189644  -0.057738  -0.025968
6  1.379182  10.126250  -5.408379 0.045216  0.008497  0.010268
6  0.822331  8.981485  -6.053533 -0.062819  0.049068  0.031554
6  0.594947  7.796587  -5.353363 -0.082923  0.051391  0.029534
1  0.153503  6.930820  -5.853027 -0.162208  0.082997  0.044794
6  0.984047  7.759860  -4.009378 -0.007904  0.013531  0.006976
6  -0.470694  3.330417  -2.524752 -0.063854  0.028897  0.011001
6  -1.069547  2.785403  -3.666610 0.025177  -0.011125  -0.016416
1  -1.082958  3.315281  -4.621989 0.070369  -0.030071  -0.027554
6  -1.656094  1.523548  -3.549287 0.076717  -0.036795  -0.035255
6  -1.643891  0.829769  -2.300442 0.024194  -0.014864  -0.022591
6  -1.054524  1.377833  -1.163614 -0.071548  0.02837  0.006404
1  -1.047897  0.849814  -0.203942 -0.102174  0.039486  0.01274
6  -0.461744  2.641113  -1.292885 -0.108418  0.047333  0.021959
8  1.561543  11.289408  -6.130983 0.074571  0.005199  0.011753
8  0.456576  9.066279  -7.384615 -0.14885  0.08936  0.057959
8  -2.247387  0.943258  -4.633013 0.186378  -0.086931  -0.068179
8  0.524098  1.466313  6.127027 -0.058775  0.055449  0.037974
8  1.625783  3.699191  7.367660 0.201926  -0.043286  -0.014416
8  3.425625  5.408669  -0.561990 -0.063149  -0.144003  -0.015825
8  -2.262316  -0.402848  -2.343578 0.087114  -0.045656  -0.044626
8  4.359842  11.883565  4.581877 -0.186119  0.064096  0.021848
8  4.349973  13.171875  2.290160 -0.116048  0.035269  0.005213
1  0.881467  3.215060  7.771918 0.196464  0.008393  0.037438
1  1.207540  1.342662  6.812001 -0.021187  -0.002971  -0.01006
1  -2.213160  -0.821066  -1.467846 0.055181  -0.032718  -0.036653
1  -2.592746  0.075313  -4.347532 0.210439  -0.09971  -0.0779
1  1.136216  9.585584  -7.853589 -0.152836  0.059829  0.01942
1  0.813799  11.377801  -6.751482 0.037712  0.064454  0.064626
1  4.304140  13.535608  1.388759 -0.08763  0.02371  -0.000892
1  4.318527  11.302935  5.361665 -0.205239  0.072558  0.027123
