ATOMS
23  1.985697  5.996766  -0.225995 0.036881  0.073643  0.023479
7  1.465808  5.248419  1.610420 0.00763  -0.043236  -0.016375
7  2.290065  7.760927  0.765131 -0.134379  0.024494  0.023899
7  0.372438  3.176203  0.943853 -0.049529  -0.015609  -0.001117
7  2.405861  6.962218  3.064312 0.012671  -0.043701  -0.014423
6  0.927127  3.992390  1.833918 -0.02223  -0.030749  -0.005524
6  1.879640  5.765256  2.826772 -0.01212  -0.033684  -0.014356
6  2.574669  7.878644  2.116466 0.00096  -0.031663  -0.004245
6  2.566406  8.977683  0.161527 -0.013283  -0.025066  -0.009081
6  1.018977  3.674618  3.252763 -0.045535  -0.018733  0.002173
6  0.641667  2.543634  3.986040 -0.038802  -0.012569  0.019651
1  0.202166  1.663949  3.509623 -0.037578  -0.021408  0.034571
6  0.878204  2.562204  5.360574 -0.009721  -0.005275  0.016401
6  1.433320  3.711168  5.999464 -0.013876  0.004306  0.002766
6  1.825580  4.828382  5.261626 -0.032163  0.00034  -0.01058
1  2.257216  5.700030  5.759513 -0.025821  0.006072  -0.026272
6  1.617996  4.790990  3.878014 -0.037605  -0.017539  -0.008126
6  3.075879  9.217393  2.388993 0.132224  -0.077511  -0.035007
6  3.496999  9.844565  3.567916 0.136174  -0.078131  -0.038546
1  3.494779  9.301739  4.519615 0.127401  -0.072442  -0.035392
6  3.921732  11.173875  3.498436 0.034585  -0.045845  -0.025645
6  3.916369  11.875861  2.249636 0.035821  -0.049694  -0.027685
6  3.486498  11.242629  1.080669 0.126603  -0.080268  -0.042782
1  3.476086  11.773358  0.122230 0.111282  -0.079373  -0.042026
6  3.070730  9.908012  1.160470 0.124049  -0.076127  -0.036157
7  1.450745  7.175121  -1.814962 -0.037967  -0.024464  -0.011084
7  0.622139  4.663640  -0.970547 0.111  -0.069121  -0.031843
7  2.388096  9.310874  -1.112708 -0.003103  -0.038748  -0.013895
7  0.351398  5.526158  -3.231816 -0.023112  -0.028104  -0.009806
6  1.858376  8.484498  -2.008653 -0.021612  -0.032148  -0.009968
6  0.903995  6.712246  -3.000312 -0.009945  -0.033111  -0.021053
6  0.208646  4.598731  -2.291321 -0.010775  -0.022136  -0.001232
6  0.219105  3.499215  -0.336637 -0.021485  -0.014718  -0.00454
6  1.584619  8.875924  -3.385107 0.007258  -0.039743  -0.015038
6  1.782759  10.078136  -4.073627 0.015978  -0.033579  0.002549
1  2.215400  10.958064  -3.591448 0.014108  -0.04197  0.019296
6  1.379182  10.126250  -5.408379 0.0098  -0.010692  0.00703
6  0.822331  8.981485  -6.053533 0.007457  -0.000653  -0.008548
6  0.594947  7.796587  -5.353363 0.016807  -0.016412  -0.028884
1  0.153503  6.930820  -5.853027 0.013098  -0.005705  -0.044344
6  0.984047  7.759860  -4.009378 0.010821  -0.036092  -0.025982
6  -0.470694  3.330417  -2.524752 -0.138939  0.038611  0.030369
6  -1.069547  2.785403  -3.666610 -0.14299  0.041716  0.028931
1  -1.082958  3.315281  -4.621989 -0.124352  0.035783  0.025327
6  -1.656094  1.523548  -3.549287 -0.062877  0.001271  0.000772
6  -1.643891  0.829769  -2.300442 -0.061614  -0.002387  -0.000964
6  -1.054524  1.377833  -1.163614 -0.148483  0.039482  0.025239
1  -1.047897  0.849814  -0.203942 -0.13971  0.031524  0.020872
6  -0.461744  2.641113  -1.292885 -0.14564  0.041157  0.029525
8  1.561543  11.289408  -6.130983 -0.003287  0.007249  0.033273
8  0.456576  9.066279  -7.384615 -0.014293  0.031021  -0.000761
8  -2.247387  0.943258  -4.633013 0.072356  -0.06365  -0.0391
8  0.524098  1.466313  6.127027 0.038878  -0.01244  0.030054
8  1.625783  3.699191  7.367660 0.015276  0.01453  -0.001654
8  3.425625  5.408669  -0.561990 0.279508  0.576259  0.183424
8  -2.262316  -0.402848  -2.343578 0.086978  -0.076333  -0.048682
8  4.359842  11.883565  4.581877 -0.12732  0.008953  0.002848
8  4.349973  13.171875  2.290160 -0.113892  -0.001337  -0.006255
1  0.881467  3.215060  7.771918 0.036841  -0.00326  0.0168
1  1.207540  1.342662  6.812001 0.064931  0.006046  0.007379
1  -2.213160  -0.821066  -1.467846 0.128416  -0.100412  -0.062479
1  -2.592746  0.075313  -4.347532 0.140895  -0.097585  -0.059249
1  1.136216  9.585584  -7.853589 -0.023937  0.045473  0.00122
1  0.813799  11.377801  -6.751482 -0.011215  0.020435  0.044755
1  4.304140  13.535608  1.388759 -0.136004  0.001136  -0.004083
1  4.318527  11.302935  5.361665 -0.150615  0.01825  0.008473
