ATOMS
23  1.985697  5.996766  -0.225995 0.00438  0.00934  0.005581
7  1.465808  5.248419  1.610420 0.018185  0.04458  -0.022452
7  2.290065  7.760927  0.765131 -0.010466  -0.045326  -0.025529
7  0.372438  3.176203  0.943853 -0.016818  -0.014216  0.02696
7  2.405861  6.962218  3.064312 -0.02357  -0.072413  0.027328
6  0.927127  3.992390  1.833918 0.007356  0.058084  -0.047888
6  1.879640  5.765256  2.826772 -0.005375  -0.056582  0.027155
6  2.574669  7.878644  2.116466 -0.026181  -0.054895  0.006286
6  2.566406  8.977683  0.161527 -0.022676  -0.022485  -0.048376
6  1.018977  3.674618  3.252763 0.030753  0.006684  -0.035375
6  0.641667  2.543634  3.986040 0.001379  0.020745  -0.011881
1  0.202166  1.663949  3.509623 -0.031817  0.044061  -0.026839
6  0.878204  2.562204  5.360574 -4.2e-05  -0.011471  0.006642
6  1.433320  3.711168  5.999464 0.005759  0.032271  -0.003806
6  1.825580  4.828382  5.261626 0.029838  0.051838  0.022517
1  2.257216  5.700030  5.759513 0.06589  0.060351  -0.022739
6  1.617996  4.790990  3.878014 -0.032742  -0.010365  0.027087
6  3.075879  9.217393  2.388993 0.010953  -0.016652  0.048787
6  3.496999  9.844565  3.567916 -0.009123  -0.160038  0.226032
1  3.494779  9.301739  4.519615 -0.059287  -0.231601  0.191656
6  3.921732  11.173875  3.498436 -0.01162  -0.079796  0.080417
6  3.916369  11.875861  2.249636 -0.012951  0.026928  -0.110141
6  3.486498  11.242629  1.080669 -0.01043  0.111773  -0.255733
1  3.476086  11.773358  0.122230 -0.05227  0.042891  -0.29993
6  3.070730  9.908012  1.160470 0.005891  0.036595  -0.038269
7  1.450745  7.175121  -1.814962 0.021949  0.002579  0.046918
7  0.622139  4.663640  -0.970547 -0.085768  -0.059536  -0.032009
7  2.388096  9.310874  -1.112708 -0.022068  -0.013355  -0.073543
7  0.351398  5.526158  -3.231816 -0.014381  0.008905  -0.024697
6  1.858376  8.484498  -2.008653 -0.010301  -0.003077  -0.060014
6  0.903995  6.712246  -3.000312 0.001212  -0.012087  0.075693
6  0.208646  4.598731  -2.291321 0.008857  -0.044578  -0.067876
6  0.219105  3.499215  -0.336637 0.018362  -0.082236  -0.000445
6  1.584619  8.875924  -3.385107 -0.029242  0.018741  -0.023484
6  1.782759  10.078136  -4.073627 0.03274  0.051167  0.034547
1  2.215400  10.958064  -3.591448 0.062678  0.019509  0.066695
6  1.379182  10.126250  -5.408379 0.006383  0.014371  0.031075
6  0.822331  8.981485  -6.053533 -0.001473  -0.001561  -0.013397
6  0.594947  7.796587  -5.353363 0.000655  -0.003037  0.022124
1  0.153503  6.930820  -5.853027 -0.034503  -0.00374  0.051698
6  0.984047  7.759860  -4.009378 0.030826  -0.027523  0.023142
6  -0.470694  3.330417  -2.524752 -0.001176  0.005498  0.03758
6  -1.069547  2.785403  -3.666610 -0.017997  -0.144555  0.210675
1  -1.082958  3.315281  -4.621989 -0.037559  -0.248647  0.161275
6  -1.656094  1.523548  -3.549287 -0.007168  -0.075529  0.079902
6  -1.643891  0.829769  -2.300442 -0.012526  0.022779  -0.099234
6  -1.054524  1.377833  -1.163614 -0.018298  0.112778  -0.231832
1  -1.047897  0.849814  -0.203942 -0.004255  0.017229  -0.29045
6  -0.461744  2.641113  -1.292885 -0.004822  0.043182  -0.017012
8  1.561543  11.289408  -6.130983 0.000245  -0.009661  0.002501
8  0.456576  9.066279  -7.384615 -0.01371  0.000257  -0.059716
8  -2.247387  0.943258  -4.633013 0.047519  0.041655  0.100483
8  0.524098  1.466313  6.127027 -0.012609  -0.049021  0.03044
8  1.625783  3.699191  7.367660 -0.000223  -0.003102  -0.01058
8  3.425625  5.408669  -0.561990 0.001078  0.000643  0.000134
8  -2.262316  -0.402848  -2.343578 0.043144  0.10228  -0.020055
8  4.359842  11.883565  4.581877 0.03437  0.042767  0.105255
8  4.349973  13.171875  2.290160 0.033108  0.110661  -0.018507
1  0.881467  3.215060  7.771918 -0.020388  0.007752  -0.034714
1  1.207540  1.342662  6.812001 -0.021054  -0.022346  0.045277
1  -2.213160  -0.821066  -1.467846 0.076099  0.150036  -2.8e-05
1  -2.592746  0.075313  -4.347532 0.009849  0.027019  -0.001953
1  1.136216  9.585584  -7.853589 -0.021378  0.0279  -0.042695
1  0.813799  11.377801  -6.751482 -0.019923  -0.025701  0.02448
1  4.304140  13.535608  1.388759 0.059076  0.17832  0.006647
1  4.318527  11.302935  5.361665 0.059492  0.099119  0.149554
