ATOMS
23  1.985697  5.996766  -0.225995 0.001027  0.00043  0.001285
7  1.465808  5.248419  1.610420 0.004708  0.013554  -0.031337
7  2.290065  7.760927  0.765131 0.008771  0.026277  0.014129
7  0.372438  3.176203  0.943853 -0.003284  0.002062  -0.005475
7  2.405861  6.962218  3.064312 0.004395  0.004101  0.000569
6  0.927127  3.992390  1.833918 0.015414  0.000841  -0.016707
6  1.879640  5.765256  2.826772 -0.015684  0.013847  -0.013971
6  2.574669  7.878644  2.116466 0.006991  0.011512  0.008429
6  2.566406  8.977683  0.161527 0.006928  0.013103  0.003752
6  1.018977  3.674618  3.252763 -0.026713  -0.003844  0.010961
6  0.641667  2.543634  3.986040 0.056181  -0.050561  0.011466
1  0.202166  1.663949  3.509623 -0.391404  0.100007  0.145616
6  0.878204  2.562204  5.360574 -0.01624  0.012885  0.013177
6  1.433320  3.711168  5.999464 0.015084  -0.018903  -0.001554
6  1.825580  4.828382  5.261626 -0.05944  0.022856  0.040016
1  2.257216  5.700030  5.759513 0.3712  -0.197453  0.05325
6  1.617996  4.790990  3.878014 0.025926  -0.007403  0.011274
6  3.075879  9.217393  2.388993 -0.004405  -0.005594  -0.011894
6  3.496999  9.844565  3.567916 -0.012169  -0.018331  -0.021025
1  3.494779  9.301739  4.519615 -0.018804  -0.073068  -0.052623
6  3.921732  11.173875  3.498436 -0.000628  -0.008002  0.004977
6  3.916369  11.875861  2.249636 -0.000652  0.000113  -0.009398
6  3.486498  11.242629  1.080669 -0.012492  -0.02864  -0.004073
1  3.476086  11.773358  0.122230 -0.017194  -0.085064  -0.034908
6  3.070730  9.908012  1.160470 -0.005222  -0.013569  0.001016
7  1.450745  7.175121  -1.814962 0.003642  -0.015519  0.016899
7  0.622139  4.663640  -0.970547 -0.027428  -0.032582  -0.020029
7  2.388096  9.310874  -1.112708 0.004771  0.001161  0.002479
7  0.351398  5.526158  -3.231816 0.000876  -0.000512  0.013685
6  1.858376  8.484498  -2.008653 -0.021527  -0.003583  0.020607
6  0.903995  6.712246  -3.000312 0.016703  -0.008558  0.00125
6  0.208646  4.598731  -2.291321 -0.013425  -0.017884  -0.012018
6  0.219105  3.499215  -0.336637 -0.008387  -0.013975  -0.007038
6  1.584619  8.875924  -3.385107 0.034074  0.000354  -0.010082
6  1.782759  10.078136  -4.073627 -0.083546  0.043557  0.010241
1  2.215400  10.958064  -3.591448 0.50024  -0.115169  -0.222989
6  1.379182  10.126250  -5.408379 0.021885  -0.013428  -0.017079
6  0.822331  8.981485  -6.053533 -0.017026  0.015045  0.004437
6  0.594947  7.796587  -5.353363 0.061832  -0.020309  -0.045455
1  0.153503  6.930820  -5.853027 -0.424743  0.173216  0.048558
6  0.984047  7.759860  -4.009378 -0.02638  0.012738  -0.008472
6  -0.470694  3.330417  -2.524752 0.006577  -0.00053  0.013979
6  -1.069547  2.785403  -3.666610 0.011811  0.023224  0.028421
1  -1.082958  3.315281  -4.621989 0.097927  0.078371  0.058094
6  -1.656094  1.523548  -3.549287 0.004362  0.008173  -0.009491
6  -1.643891  0.829769  -2.300442 0.004289  0.001293  0.010502
6  -1.054524  1.377833  -1.163614 0.019035  0.038294  0.004089
1  -1.047897  0.849814  -0.203942 0.062883  0.099144  0.036715
6  -0.461744  2.641113  -1.292885 0.008253  0.016317  -0.001168
8  1.561543  11.289408  -6.130983 -0.006535  -0.006907  0.011893
8  0.456576  9.066279  -7.384615 0.008532  -0.006102  0.016811
8  -2.247387  0.943258  -4.633013 -0.010066  -0.010444  -0.015245
8  0.524098  1.466313  6.127027 0.008651  0.012095  -0.015286
8  1.625783  3.699191  7.367660 -0.006064  0.005725  -0.018746
8  3.425625  5.408669  -0.561990 8.7e-05  -4.4e-05  -0.000137
8  -2.262316  -0.402848  -2.343578 -0.011111  -0.021313  -0.002148
8  4.359842  11.883565  4.581877 0.005471  0.010456  0.012354
8  4.349973  13.171875  2.290160 0.00559  0.01658  0.002573
1  0.881467  3.215060  7.771918 -0.004949  0.015641  -0.006918
1  1.207540  1.342662  6.812001 0.007132  -0.001376  -0.017426
1  -2.213160  -0.821066  -1.467846 -0.022447  -0.037408  -0.008886
1  -2.592746  0.075313  -4.347532 0.001549  -0.004562  0.021435
1  1.136216  9.585584  -7.853589 0.010234  -0.014931  0.011202
1  0.813799  11.377801  -6.751482 -0.010238  -0.004405  0.017627
1  4.304140  13.535608  1.388759 0.012623  0.030478  0.007457
1  4.318527  11.302935  5.361665 0.012199  0.021996  0.021694
