ATOMS
23  1.985697  5.996766  -0.225995 0.000112  0.000555  -0.000943
7  1.465808  5.248419  1.610420 -0.022972  -0.078325  -0.037664
7  2.290065  7.760927  0.765131 -0.000612  -0.041813  0.075629
7  0.372438  3.176203  0.943853 0.046307  0.023258  0.11431
7  2.405861  6.962218  3.064312 0.042933  0.116302  -0.043701
6  0.927127  3.992390  1.833918 -0.015623  -0.05005  0.171892
6  1.879640  5.765256  2.826772 0.001318  0.117268  -0.135858
6  2.574669  7.878644  2.116466 0.075854  0.15953  0.051389
6  2.566406  8.977683  0.161527 -0.073512  -0.127647  -0.110591
6  1.018977  3.674618  3.252763 -0.024799  -0.051955  0.081197
6  0.641667  2.543634  3.986040 -0.047231  -0.118788  -0.031928
1  0.202166  1.663949  3.509623 -0.045952  -0.120451  -0.027824
6  0.878204  2.562204  5.360574 -0.005443  0.00685  -0.053473
6  1.433320  3.711168  5.999464 -0.00785  -0.046175  0.033877
6  1.825580  4.828382  5.261626 -0.053716  -0.096877  -0.084612
1  2.257216  5.700030  5.759513 -0.085668  -0.083866  -0.078154
6  1.617996  4.790990  3.878014 0.022984  0.021785  -0.096215
6  3.075879  9.217393  2.388993 0.00426  0.085567  0.072244
6  3.496999  9.844565  3.567916 0.018385  -0.036098  0.133812
1  3.494779  9.301739  4.519615 0.060973  -0.040069  0.129879
6  3.921732  11.173875  3.498436 -0.022649  -0.045383  -0.008526
6  3.916369  11.875861  2.249636 0.022943  0.031038  0.033077
6  3.486498  11.242629  1.080669 -0.017568  -0.093273  0.097736
1  3.476086  11.773358  0.122230 -0.057491  -0.088653  0.098923
6  3.070730  9.908012  1.160470 -0.004604  -0.104626  -0.035747
7  1.450745  7.175121  -1.814962 0.024246  0.072573  0.046869
7  0.622139  4.663640  -0.970547 -0.000896  0.041399  -0.07915
7  2.388096  9.310874  -1.112708 -0.045144  -0.024948  -0.123414
7  0.351398  5.526158  -3.231816 -0.043947  -0.113049  0.043542
6  1.858376  8.484498  -2.008653 -0.005033  0.055912  -0.172894
6  0.903995  6.712246  -3.000312 0.015382  -0.122035  0.134686
6  0.208646  4.598731  -2.291321 -0.084949  -0.152734  -0.049129
6  0.219105  3.499215  -0.336637 0.080693  0.121628  0.101867
6  1.584619  8.875924  -3.385107 -0.022032  0.072442  -0.070273
6  1.782759  10.078136  -4.073627 0.055234  0.126945  0.039297
1  2.215400  10.958064  -3.591448 0.084045  0.116495  0.03097
6  1.379182  10.126250  -5.408379 0.008879  -0.005116  0.058067
6  0.822331  8.981485  -6.053533 0.004161  0.042474  -0.034287
6  0.594947  7.796587  -5.353363 0.048145  0.089374  0.084624
1  0.153503  6.930820  -5.853027 0.047567  0.086651  0.088033
6  0.984047  7.759860  -4.009378 0.025446  -0.042234  0.087165
6  -0.470694  3.330417  -2.524752 -0.053243  -0.066692  -0.054017
6  -1.069547  2.785403  -3.666610 -0.012355  0.047939  -0.128785
1  -1.082958  3.315281  -4.621989 -0.009685  0.049578  -0.127086
6  -1.656094  1.523548  -3.549287 0.026612  0.050473  0.005243
6  -1.643891  0.829769  -2.300442 -0.024272  -0.025237  -0.039113
6  -1.054524  1.377833  -1.163614 0.015178  0.08736  -0.098928
1  -1.047897  0.849814  -0.203942 0.009477  0.085681  -0.098197
6  -0.461744  2.641113  -1.292885 0.053376  0.079138  0.029034
8  1.561543  11.289408  -6.130983 -0.009654  -0.100703  0.053306
8  0.456576  9.066279  -7.384615 -0.025879  -0.001282  -0.11824
8  -2.247387  0.943258  -4.633013 0.048998  0.047307  0.091544
8  0.524098  1.466313  6.127027 0.024442  0.100138  -0.059708
8  1.625783  3.699191  7.367660 0.010417  0.006962  0.111841
8  3.425625  5.408669  -0.561990 -4.7e-05  -0.000456  0.000849
8  -2.262316  -0.402848  -2.343578 -0.05403  -0.113579  0.004986
8  4.359842  11.883565  4.581877 -0.038693  -0.060583  -0.094283
8  4.349973  13.171875  2.290160 0.038311  0.112687  0.002105
1  0.881467  3.215060  7.771918 0.053235  -0.051747  0.125048
1  1.207540  1.342662  6.812001 0.066453  0.069868  -0.11011
1  -2.213160  -0.821066  -1.467846 -0.008367  -0.038146  0.041469
1  -2.592746  0.075313  -4.347532 0.052272  0.050543  0.100629
1  1.136216  9.585584  -7.853589 -0.067822  0.058017  -0.117932
1  0.813799  11.377801  -6.751482 -0.053236  -0.080864  0.111715
1  4.304140  13.535608  1.388759 0.001924  0.045889  -0.026494
1  4.318527  11.302935  5.361665 -0.002184  -0.000825  -0.051902
