ATOMS
23  1.985697  5.996766  -0.225995 0.000563  0.0022  -0.002257
7  1.465808  5.248419  1.610420 -0.009573  -0.057074  0.118139
7  2.290065  7.760927  0.765131 -0.011262  -0.020953  -0.026328
7  0.372438  3.176203  0.943853 -0.007784  -0.017887  0.009659
7  2.405861  6.962218  3.064312 -0.002939  -0.009937  0.010067
6  0.927127  3.992390  1.833918 0.017198  0.069523  -0.086088
6  1.879640  5.765256  2.826772 -0.007495  0.01717  -0.094884
6  2.574669  7.878644  2.116466 -0.001278  -0.021917  0.036924
6  2.566406  8.977683  0.161527 0.0195  0.033452  0.040612
6  1.018977  3.674618  3.252763 -0.007551  0.011523  -0.074969
6  0.641667  2.543634  3.986040 -0.017687  -0.064451  0.065703
1  0.202166  1.663949  3.509623 -0.001238  0.076462  -0.231042
6  0.878204  2.562204  5.360574 -0.022098  -0.11748  0.057123
6  1.433320  3.711168  5.999464 0.0143  0.027127  0.132637
6  1.825580  4.828382  5.261626 0.001017  -0.023252  0.080243
1  2.257216  5.700030  5.759513 0.028254  0.124764  -0.184505
6  1.617996  4.790990  3.878014 0.022249  0.065589  -0.048373
6  3.075879  9.217393  2.388993 0.000489  0.01869  -0.030697
6  3.496999  9.844565  3.567916 -0.001785  -0.00449  -0.00202
1  3.494779  9.301739  4.519615 0.048741  0.112795  0.065912
6  3.921732  11.173875  3.498436 5.5e-05  -0.011501  0.020129
6  3.916369  11.875861  2.249636 -0.018933  -0.059879  0.004425
6  3.486498  11.242629  1.080669 -0.005716  -0.022804  0.008976
1  3.476086  11.773358  0.122230 -0.005075  -0.025283  0.014436
6  3.070730  9.908012  1.160470 0.008831  0.030415  -0.005682
7  1.450745  7.175121  -1.814962 0.013338  -0.062494  0.108215
7  0.622139  4.663640  -0.970547 -0.028819  -0.036843  -0.032845
7  2.388096  9.310874  -1.112708 -0.00344  -0.018544  0.007267
7  0.351398  5.526158  -3.231816 -0.001423  -0.012492  0.011678
6  1.858376  8.484498  -2.008653 0.004668  0.078383  -0.078032
6  0.903995  6.712246  -3.000312 -0.023666  0.012331  -0.090257
6  0.208646  4.598731  -2.291321 0.007708  -0.008725  0.039288
6  0.219105  3.499215  -0.336637 0.036034  0.048962  0.045893
6  1.584619  8.875924  -3.385107 -0.013037  0.014978  -0.057397
6  1.782759  10.078136  -4.073627 -0.003958  -0.062883  0.057318
1  2.215400  10.958064  -3.591448 -0.031667  0.080789  -0.1982
6  1.379182  10.126250  -5.408379 -0.006772  -0.105387  0.043847
6  0.822331  8.981485  -6.053533 0.025711  0.017962  0.116196
6  0.594947  7.796587  -5.353363 0.011176  -0.02431  0.066728
1  0.153503  6.930820  -5.853027 -0.003332  0.1182  -0.151823
6  0.984047  7.759860  -4.009378 0.009669  0.060141  -0.04198
6  -0.470694  3.330417  -2.524752 0.010632  0.037849  -0.027567
6  -1.069547  2.785403  -3.666610 -0.012352  -0.024346  -0.001121
1  -1.082958  3.315281  -4.621989 0.057342  0.082619  0.056415
6  -1.656094  1.523548  -3.549287 -0.01495  -0.008181  -0.038492
6  -1.643891  0.829769  -2.300442 -0.028414  -0.049879  -0.01414
6  -1.054524  1.377833  -1.163614 -0.016129  -0.042482  0.017481
1  -1.047897  0.849814  -0.203942 0.047657  0.053094  0.077692
6  -0.461744  2.641113  -1.292885 0.01506  0.030044  0.000478
8  1.561543  11.289408  -6.130983 -0.014148  0.032869  -0.039116
8  0.456576  9.066279  -7.384615 0.002571  0.01641  -0.051327
8  -2.247387  0.943258  -4.633013 0.01075  0.014897  0.012122
8  0.524098  1.466313  6.127027 -0.007971  0.036212  -0.047489
8  1.625783  3.699191  7.367660 0.011672  0.015554  -0.058274
8  3.425625  5.408669  -0.561990 0.000352  0.000665  -0.000677
8  -2.262316  -0.402848  -2.343578 0.013601  0.025479  0.003934
8  4.359842  11.883565  4.581877 0.003271  0.012289  -0.003804
8  4.349973  13.171875  2.290160 0.006895  0.026295  -0.009721
1  0.881467  3.215060  7.771918 -0.102685  -0.041838  -0.318294
1  1.207540  1.342662  6.812001 0.159553  0.306361  -0.153342
1  -2.213160  -0.821066  -1.467846 0.006045  0.013851  -0.003089
1  -2.592746  0.075313  -4.347532 0.048051  0.030677  0.116297
1  1.136216  9.585584  -7.853589 -0.119623  -0.023192  -0.259058
1  0.813799  11.377801  -6.751482 0.104112  0.292308  -0.131647
1  4.304140  13.535608  1.388759 0.053624  0.142903  0.037529
1  4.318527  11.302935  5.361665 -0.054966  -0.113389  -0.094619
