ATOMS
23  1.985697  5.996766  -0.225995 0.001219  -0.004869  -0.003382
7  1.465808  5.248419  1.610420 -0.002858  -0.007241  0.012846
7  2.290065  7.760927  0.765131 -0.022333  0.006382  0.004247
7  0.372438  3.176203  0.943853 -0.025068  0.007025  0.00911
7  2.405861  6.962218  3.064312 0.008443  -0.005195  0.003399
6  0.927127  3.992390  1.833918 -0.021495  -0.000704  0.014626
6  1.879640  5.765256  2.826772 0.007648  -0.007402  0.011695
6  2.574669  7.878644  2.116466 -0.009974  0.001761  0.00439
6  2.566406  8.977683  0.161527 -0.006483  0.002492  -0.000906
6  1.018977  3.674618  3.252763 -0.013354  0.000655  0.016643
6  0.641667  2.543634  3.986040 0.014482  0.018192  0.039949
1  0.202166  1.663949  3.509623 0.01262  0.010154  0.055234
6  0.878204  2.562204  5.360574 0.007851  -0.044262  0.050532
6  1.433320  3.711168  5.999464 -0.002753  -0.020985  0.061299
6  1.825580  4.828382  5.261626 -0.005969  -0.046664  0.004114
1  2.257216  5.700030  5.759513 -0.005993  -0.05477  0.019584
6  1.617996  4.790990  3.878014 0.004598  -0.011254  0.011166
6  3.075879  9.217393  2.388993 -0.002871  0.002602  0.00278
6  3.496999  9.844565  3.567916 0.012006  0.002327  8.5e-05
1  3.494779  9.301739  4.519615 0.017546  0.000949  -0.000556
6  3.921732  11.173875  3.498436 0.007831  0.004792  0.002946
6  3.916369  11.875861  2.249636 0.005141  0.00485  0.003659
6  3.486498  11.242629  1.080669 0.001392  0.003501  0.00474
1  3.476086  11.773358  0.122230 0.00147  0.003987  0.004871
6  3.070730  9.908012  1.160470 -0.005515  0.00358  0.002191
7  1.450745  7.175121  -1.814962 -0.002161  0.0073  -0.014428
7  0.622139  4.663640  -0.970547 0.04585  -0.025508  -0.014123
7  2.388096  9.310874  -1.112708 0.018863  -0.00408  -0.008296
7  0.351398  5.526158  -3.231816 -0.036768  0.015693  0.005011
6  1.858376  8.484498  -2.008653 0.011728  0.005182  -0.014036
6  0.903995  6.712246  -3.000312 -0.025921  0.013671  -0.008056
6  0.208646  4.598731  -2.291321 0.013249  -0.005448  -0.006155
6  0.219105  3.499215  -0.336637 0.017091  -0.010335  -0.001698
6  1.584619  8.875924  -3.385107 0.001957  0.004846  -0.015577
6  1.782759  10.078136  -4.073627 -0.018043  -0.01906  -0.042106
1  2.215400  10.958064  -3.591448 -0.023707  -0.007349  -0.056982
6  1.379182  10.126250  -5.408379 -0.006595  0.045676  -0.053295
6  0.822331  8.981485  -6.053533 0.010324  0.021008  -0.070786
6  0.594947  7.796587  -5.353363 0.025925  0.043729  -0.008929
1  0.153503  6.930820  -5.853027 0.02872  0.05167  -0.026445
6  0.984047  7.759860  -4.009378 -0.011403  0.014393  -0.009523
6  -0.470694  3.330417  -2.524752 0.009672  -0.004233  -0.00189
6  -1.069547  2.785403  -3.666610 -0.001272  0.001157  0.001616
1  -1.082958  3.315281  -4.621989 -0.002323  0.002657  0.002447
6  -1.656094  1.523548  -3.549287 -0.003667  0.00245  0.001441
6  -1.643891  0.829769  -2.300442 -0.006723  0.003519  0.001952
6  -1.054524  1.377833  -1.163614 -0.012311  0.006337  0.003506
1  -1.047897  0.849814  -0.203942 -0.018865  0.009628  0.005424
6  -0.461744  2.641113  -1.292885 0.006886  -0.003312  -0.000773
8  1.561543  11.289408  -6.130983 0.093907  0.192056  0.198985
8  0.456576  9.066279  -7.384615 -0.093974  -0.267152  -0.066165
8  -2.247387  0.943258  -4.633013 0.003064  0.001554  -0.002469
8  0.524098  1.466313  6.127027 -0.081805  -0.182283  -0.17927
8  1.625783  3.699191  7.367660 0.081002  0.250582  0.056344
8  3.425625  5.408669  -0.561990 -0.004097  -0.014713  -0.007683
8  -2.262316  -0.402848  -2.343578 0.008904  -0.004702  0.000217
8  4.359842  11.883565  4.581877 -0.001101  0.011159  0.00403
8  4.349973  13.171875  2.290160 0.002955  0.006785  0.005773
1  0.881467  3.215060  7.771918 0.245557  0.154159  0.234389
1  1.207540  1.342662  6.812001 -0.253962  -0.279974  -0.030467
1  -2.213160  -0.821066  -1.467846 -0.006243  0.006526  0.006415
1  -2.592746  0.075313  -4.347532 -0.001625  0.003261  -0.003308
1  1.136216  9.585584  -7.853589 -0.279452  -0.192984  -0.244451
1  0.813799  11.377801  -6.751482 0.277654  0.304183  0.000291
1  4.304140  13.535608  1.388759 -0.005325  0.010192  0.007545
1  4.318527  11.302935  5.361665 -0.006364  0.01454  0.006301
