ATOMS
23  1.985697  5.996766  -0.225995 -2.2e-05  0.000317  0.000192
7  1.465808  5.248419  1.610420 -0.007071  -0.012565  -0.007797
7  2.290065  7.760927  0.765131 -0.001062  -0.003132  -0.001984
7  0.372438  3.176203  0.943853 -0.001298  -0.001695  -0.000929
7  2.405861  6.962218  3.064312 -0.000766  -0.002353  -0.000608
6  0.927127  3.992390  1.833918 0.005494  0.015536  -0.012169
6  1.879640  5.765256  2.826772 0.002102  -0.002582  0.020373
6  2.574669  7.878644  2.116466 -9.7e-05  0.000303  -0.000578
6  2.566406  8.977683  0.161527 -0.000287  -0.001076  0.000699
6  1.018977  3.674618  3.252763 0.000432  -0.004275  0.011136
6  0.641667  2.543634  3.986040 -0.018058  -0.03705  -0.035168
1  0.202166  1.663949  3.509623 -0.018993  0.107833  -0.309623
6  0.878204  2.562204  5.360574 0.007715  0.050454  0.040462
6  1.433320  3.711168  5.999464 0.010407  0.063343  0.018078
6  1.825580  4.828382  5.261626 -0.019942  -0.050881  -0.012131
1  2.257216  5.700030  5.759513 -0.064637  -0.192574  0.266758
6  1.617996  4.790990  3.878014 0.000876  0.005736  -0.009457
6  3.075879  9.217393  2.388993 0.002158  0.006436  6.6e-05
6  3.496999  9.844565  3.567916 0.000736  0.002475  -0.000234
1  3.494779  9.301739  4.519615 -0.013226  -0.030326  -0.018987
6  3.921732  11.173875  3.498436 0.000839  0.001543  0.001683
6  3.916369  11.875861  2.249636 0.000915  0.002369  0.000626
6  3.486498  11.242629  1.080669 0.000856  0.001637  0.001882
1  3.476086  11.773358  0.122230 -0.013365  -0.032074  -0.016663
6  3.070730  9.908012  1.160470 0.002322  0.003426  0.006095
7  1.450745  7.175121  -1.814962 -0.007143  -0.013215  -0.0068
7  0.622139  4.663640  -0.970547 -9e-05  0.00045  -0.00063
7  2.388096  9.310874  -1.112708 -0.000879  -0.001709  -0.002154
7  0.351398  5.526158  -3.231816 -0.001346  -0.00184  -0.000808
6  1.858376  8.484498  -2.008653 0.001967  0.016246  -0.012937
6  0.903995  6.712246  -3.000312 0.005637  -0.002607  0.019792
6  0.208646  4.598731  -2.291321 -0.000233  -0.000325  -0.000713
6  0.219105  3.499215  -0.336637 -0.00059  -0.001599  0.000322
6  1.584619  8.875924  -3.385107 0.00121  -0.004537  0.010037
6  1.782759  10.078136  -4.073627 -0.019582  -0.03631  -0.035521
1  2.215400  10.958064  -3.591448 -0.06551  0.122637  -0.29233
6  1.379182  10.126250  -5.408379 0.010345  0.04636  0.043367
6  0.822331  8.981485  -6.053533 0.00694  0.059249  0.020677
6  0.594947  7.796587  -5.353363 -0.017588  -0.048262  -0.01303
1  0.153503  6.930820  -5.853027 -0.016354  -0.202188  0.244964
6  0.984047  7.759860  -4.009378 0.000631  0.007899  -0.009125
6  -0.470694  3.330417  -2.524752 0.001356  0.002468  0.000539
6  -1.069547  2.785403  -3.666610 0.000807  0.001011  0.000964
1  -1.082958  3.315281  -4.621989 -0.013385  -0.020457  -0.010706
6  -1.656094  1.523548  -3.549287 0.000932  0.001864  0.00011
6  -1.643891  0.829769  -2.300442 0.001125  0.002491  -0.000317
6  -1.054524  1.377833  -1.163614 0.001064  0.00115  0.001667
1  -1.047897  0.849814  -0.203942 -0.008194  -0.012739  -0.005992
6  -0.461744  2.641113  -1.292885 0.001102  0.001142  0.001987
8  1.561543  11.289408  -6.130983 0.020056  0.004348  0.004006
8  0.456576  9.066279  -7.384615 0.019915  0.005378  -0.001555
8  -2.247387  0.943258  -4.633013 -0.00077  -0.00055  -0.001776
8  0.524098  1.466313  6.127027 0.02005  0.001175  0.005645
8  1.625783  3.699191  7.367660 0.020773  0.005895  0.001184
8  3.425625  5.408669  -0.561990 0.000211  -0.00018  -0.000104
8  -2.262316  -0.402848  -2.343578 -0.000917  -0.002007  0.000233
8  4.359842  11.883565  4.581877 -0.00064  -0.000846  -0.001916
8  4.349973  13.171875  2.290160 -0.000657  -0.00217  0.000312
1  0.881467  3.215060  7.771918 -0.146101  -0.040117  -0.344335
1  1.207540  1.342662  6.812001 -0.18059  -0.282099  0.145904
1  -2.213160  -0.821066  -1.467846 -0.001819  -0.003397  -0.000346
1  -2.592746  0.075313  -4.347532 0.002722  0.000905  0.008121
1  1.136216  9.585584  -7.853589 -0.180134  -0.022331  -0.309565
1  0.813799  11.377801  -6.751482 -0.138912  -0.305505  0.140708
1  4.304140  13.535608  1.388759 -0.002942  -0.007903  -0.001857
1  4.318527  11.302935  5.361665 -0.002508  -0.004742  -0.004964
