ATOMS
23  1.985697  5.996766  -0.225995 0.009531  -0.002758  0.000777
7  1.465808  5.248419  1.610420 0.025717  -0.012179  -0.00351
7  2.290065  7.760927  0.765131 -0.006579  0.001593  0.000908
7  0.372438  3.176203  0.943853 -0.028986  0.01188  0.007148
7  2.405861  6.962218  3.064312 -0.000205  -0.000118  -0.000404
6  0.927127  3.992390  1.833918 0.005124  -0.002955  -0.000522
6  1.879640  5.765256  2.826772 0.010291  -0.004468  -0.002006
6  2.574669  7.878644  2.116466 -0.004034  0.00149  0.000799
6  2.566406  8.977683  0.161527 -0.007532  0.003073  0.00156
6  1.018977  3.674618  3.252763 0.0124  -0.005002  -0.002392
6  0.641667  2.543634  3.986040 0.02028  -0.007358  -0.003596
1  0.202166  1.663949  3.509623 0.028568  -0.011036  -0.004402
6  0.878204  2.562204  5.360574 0.003142  -0.00213  -0.000703
6  1.433320  3.711168  5.999464 -0.007753  0.003259  0.000938
6  1.825580  4.828382  5.261626 -0.027021  0.010874  0.001954
1  2.257216  5.700030  5.759513 -0.041699  0.016501  0.004797
6  1.617996  4.790990  3.878014 -0.004208  0.002155  -0.0003
6  3.075879  9.217393  2.388993 -0.004207  0.002046  0.00127
6  3.496999  9.844565  3.567916 -0.002176  0.002167  0.001027
1  3.494779  9.301739  4.519615 -0.005555  0.003519  0.001797
6  3.921732  11.173875  3.498436 0.003178  0.000605  0.000234
6  3.916369  11.875861  2.249636 0.006863  -0.000599  -0.000408
6  3.486498  11.242629  1.080669 0.014922  -0.003584  -0.001887
1  3.476086  11.773358  0.122230 0.020814  -0.005459  -0.00299
6  3.070730  9.908012  1.160470 0.001333  0.000301  0.000276
7  1.450745  7.175121  -1.814962 -0.001975  0.001169  0.001457
7  0.622139  4.663640  -0.970547 -0.039209  0.02071  0.013437
7  2.388096  9.310874  -1.112708 -0.011528  0.004834  0.002785
7  0.351398  5.526158  -3.231816 0.005682  -0.00269  -0.000732
6  1.858376  8.484498  -2.008653 -0.004703  0.002045  0.001049
6  0.903995  6.712246  -3.000312 -0.002862  0.001264  0.001616
6  0.208646  4.598731  -2.291321 -0.004812  0.001949  0.002314
6  0.219105  3.499215  -0.336637 -0.030416  0.013375  0.00785
6  1.584619  8.875924  -3.385107 0.002434  -0.000351  -0.001344
6  1.782759  10.078136  -4.073627 0.012449  -0.003127  -0.00418
1  2.215400  10.958064  -3.591448 0.016461  -0.004716  -0.004864
6  1.379182  10.126250  -5.408379 0.005591  -0.00133  -0.002034
6  0.822331  8.981485  -6.053533 0.001541  0.000184  -0.000422
6  0.594947  7.796587  -5.353363 -0.00476  0.00198  0.000687
1  0.153503  6.930820  -5.853027 -0.009716  0.003694  0.002071
6  0.984047  7.759860  -4.009378 -0.003318  0.001334  0.000736
6  -0.470694  3.330417  -2.524752 0.019165  -0.011422  -0.006516
6  -1.069547  2.785403  -3.666610 0.026364  -0.017051  -0.009204
1  -1.082958  3.315281  -4.621989 0.057522  -0.032587  -0.018309
6  -1.656094  1.523548  -3.549287 -0.003382  -0.003188  -0.001579
6  -1.643891  0.829769  -2.300442 0.001399  -0.005601  -0.00316
6  -1.054524  1.377833  -1.163614 0.003461  -0.005956  -0.003795
1  -1.047897  0.849814  -0.203942 -0.035887  0.013076  0.006904
6  -0.461744  2.641113  -1.292885 0.007534  -0.006309  -0.003386
8  1.561543  11.289408  -6.130983 -0.008255  0.000298  -0.003013
8  0.456576  9.066279  -7.384615 0.003346  0.004863  -0.000721
8  -2.247387  0.943258  -4.633013 -0.021398  0.001423  0.005628
8  0.524098  1.466313  6.127027 -0.013391  -0.002487  -0.008636
8  1.625783  3.699191  7.367660 0.017854  0.006411  -0.002926
8  3.425625  5.408669  -0.561990 0.014326  0.000944  0.009867
8  -2.262316  -0.402848  -2.343578 -0.066388  0.026638  0.012196
8  4.359842  11.883565  4.581877 0.001891  0.002217  -0.000165
8  4.349973  13.171875  2.290160 -0.006181  0.003774  0.003315
1  0.881467  3.215060  7.771918 0.032425  -0.00031  0.015567
1  1.207540  1.342662  6.812001 -0.021215  -0.016686  -0.003613
1  -2.213160  -0.821066  -1.467846 0.835969  -0.420565  -0.252047
1  -2.592746  0.075313  -4.347532 0.151576  -0.081938  -0.037898
1  1.136216  9.585584  -7.853589 0.005604  0.005147  0.002763
1  0.813799  11.377801  -6.751482 -0.01448  -0.006943  0.003335
1  4.304140  13.535608  1.388759 -0.011705  0.00675  0.004785
1  4.318527  11.302935  5.361665 -0.007564  0.006336  0.002415
