ATOMS
23  1.985697  5.996766  -0.225995 0.000546  0.00194  -6.6e-05
7  1.465808  5.248419  1.610420 -0.071142  0.051136  0.006322
7  2.290065  7.760927  0.765131 0.16592  -0.039747  -0.029114
7  0.372438  3.176203  0.943853 -0.110376  0.029585  0.056254
7  2.405861  6.962218  3.064312 0.054885  0.021497  -0.02669
6  0.927127  3.992390  1.833918 0.094297  -0.04668  0.002592
6  1.879640  5.765256  2.826772 0.136234  -0.027485  -0.038397
6  2.574669  7.878644  2.116466 -0.250294  0.115435  0.037528
6  2.566406  8.977683  0.161527 -0.194698  0.048822  0.039904
6  1.018977  3.674618  3.252763 0.081466  -0.061447  -0.006284
6  0.641667  2.543634  3.986040 -0.065373  -0.040324  -0.018977
1  0.202166  1.663949  3.509623 -0.107353  -0.0226  -0.015426
6  0.878204  2.562204  5.360574 0.031708  -0.023907  -0.025512
6  1.433320  3.711168  5.999464 -0.00907  0.016022  0.008879
6  1.825580  4.828382  5.261626 0.020971  0.013677  -0.0024
1  2.257216  5.700030  5.759513 0.260103  -0.076664  -0.048804
6  1.617996  4.790990  3.878014 -0.15988  0.076991  0.015097
6  3.075879  9.217393  2.388993 0.157939  -0.045399  -0.035199
6  3.496999  9.844565  3.567916 0.020921  0.01995  -0.04098
1  3.494779  9.301739  4.519615 -0.31064  0.142657  0.026895
6  3.921732  11.173875  3.498436 -0.011139  0.017613  -0.014261
6  3.916369  11.875861  2.249636 -0.032362  0.010649  0.030567
6  3.486498  11.242629  1.080669 0.037791  -0.056815  0.053947
1  3.476086  11.773358  0.122230 -0.062056  -0.022933  0.074963
6  3.070730  9.908012  1.160470 -0.028608  -0.017005  0.012603
7  1.450745  7.175121  -1.814962 0.103899  -0.024536  -0.010366
7  0.622139  4.663640  -0.970547 -0.162623  0.078524  0.029859
7  2.388096  9.310874  -1.112708 0.099151  -0.057867  -0.016784
7  0.351398  5.526158  -3.231816 -0.017419  0.054658  -0.01563
6  1.858376  8.484498  -2.008653 -0.116081  0.025528  0.04505
6  0.903995  6.712246  -3.000312 -0.134719  0.079835  0.052988
6  0.208646  4.598731  -2.291321 0.22221  -0.091955  -0.094013
6  0.219105  3.499215  -0.336637 0.213415  -0.123161  -0.040755
6  1.584619  8.875924  -3.385107 -0.07854  0.00968  0.026153
6  1.782759  10.078136  -4.073627 0.033781  -0.031757  -0.002598
1  2.215400  10.958064  -3.591448 0.055836  -0.053911  0.018383
6  1.379182  10.126250  -5.408379 -0.036718  0.017735  0.012984
6  0.822331  8.981485  -6.053533 0.012276  -0.004706  -0.00336
6  0.594947  7.796587  -5.353363 -0.015501  -0.006131  -0.005516
1  0.153503  6.930820  -5.853027 -0.253357  0.076515  0.060945
6  0.984047  7.759860  -4.009378 0.15628  -0.057602  -0.055281
6  -0.470694  3.330417  -2.524752 -0.12719  0.064551  0.029265
6  -1.069547  2.785403  -3.666610 -0.013427  0.011918  -0.012816
1  -1.082958  3.315281  -4.621989 0.218597  -0.107062  -0.08258
6  -1.656094  1.523548  -3.549287 0.014736  -0.000907  -0.007543
6  -1.643891  0.829769  -2.300442 0.034048  -0.015152  -0.004452
6  -1.054524  1.377833  -1.163614 -0.045966  -0.002674  0.030667
1  -1.047897  0.849814  -0.203942 0.113947  -0.100751  -0.023882
6  -0.461744  2.641113  -1.292885 -0.01547  -0.006881  0.014808
8  1.561543  11.289408  -6.130983 0.001489  0.010119  -0.012026
8  0.456576  9.066279  -7.384615 0.00334  -0.002391  -0.000353
8  -2.247387  0.943258  -4.633013 -0.006024  0.002335  -0.002113
8  0.524098  1.466313  6.127027 -0.001683  0.000762  -9e-05
8  1.625783  3.699191  7.367660 0.001209  0.004307  0.03515
8  3.425625  5.408669  -0.561990 0.003217  0.009127  0.0
8  -2.262316  -0.402848  -2.343578 -0.002274  0.003509  0.004437
8  4.359842  11.883565  4.581877 6.2e-05  -0.01386  -0.027752
8  4.349973  13.171875  2.290160 0.002175  -0.008167  0.005364
1  0.881467  3.215060  7.771918 -0.003444  -0.002081  0.020228
1  1.207540  1.342662  6.812001 0.001298  -0.013819  -0.00635
1  -2.213160  -0.821066  -1.467846 -0.004364  0.0063  0.005746
1  -2.592746  0.075313  -4.347532 -0.018757  0.009938  0.005734
1  1.136216  9.585584  -7.853589 0.01045  -0.012775  -0.001241
1  0.813799  11.377801  -6.751482 0.003822  0.019056  -0.013422
1  4.304140  13.535608  1.388759 0.007597  -0.026329  -0.002496
1  4.318527  11.302935  5.361665 -0.030991  -0.010527  -0.027324
