ATOMS
23  1.985697  5.996766  -0.225995 0.002905  0.004039  0.003604
7  1.465808  5.248419  1.610420 -0.090058  -0.168172  -0.093996
7  2.290065  7.760927  0.765131 -0.013972  -0.021738  -0.060889
7  0.372438  3.176203  0.943853 -0.010979  -0.004567  -0.025947
7  2.405861  6.962218  3.064312 -0.002781  -0.017823  -0.00237
6  0.927127  3.992390  1.833918 0.064546  0.18099  -0.123526
6  1.879640  5.765256  2.826772 0.02622  -0.01039  0.218748
6  2.574669  7.878644  2.116466 0.020344  0.054212  0.025902
6  2.566406  8.977683  0.161527 -0.006311  -0.042315  0.042594
6  1.018977  3.674618  3.252763 0.024049  0.029978  0.051588
6  0.641667  2.543634  3.986040 -0.006369  -0.04951  0.094738
1  0.202166  1.663949  3.509623 0.000233  -0.01619  0.019274
6  0.878204  2.562204  5.360574 -0.059628  -0.153866  0.067646
6  1.433320  3.711168  5.999464 -0.035  -0.037306  -0.151625
6  1.825580  4.828382  5.261626 0.009458  0.048868  -0.084974
1  2.257216  5.700030  5.759513 0.016327  0.064016  -0.122684
6  1.617996  4.790990  3.878014 0.024156  0.063439  -0.00251
6  3.075879  9.217393  2.388993 0.006959  0.021756  0.000914
6  3.496999  9.844565  3.567916 0.004918  0.033746  -0.033636
1  3.494779  9.301739  4.519615 -0.075451  -0.148044  -0.143668
6  3.921732  11.173875  3.498436 -0.000229  -0.027219  0.046424
6  3.916369  11.875861  2.249636 0.009048  0.052554  -0.04264
6  3.486498  11.242629  1.080669 0.018368  0.037212  0.033264
1  3.476086  11.773358  0.122230 -0.060425  -0.146858  -0.064663
6  3.070730  9.908012  1.160470 0.017405  0.009188  0.070094
7  1.450745  7.175121  -1.814962 -0.089342  -0.156905  -0.098602
7  0.622139  4.663640  -0.970547 -0.019238  0.006472  -0.065486
7  2.388096  9.310874  -1.112708 -0.008899  -0.009332  -0.035527
7  0.351398  5.526158  -3.231816 -0.00981  -0.010126  -0.003031
6  1.858376  8.484498  -2.008653 0.0284  0.183018  -0.115151
6  0.903995  6.712246  -3.000312 0.062168  -0.018567  0.210054
6  0.208646  4.598731  -2.291321 0.035168  0.049308  0.028942
6  0.219105  3.499215  -0.336637 -0.017396  -0.062621  0.045524
6  1.584619  8.875924  -3.385107 0.026035  0.030257  0.059837
6  1.782759  10.078136  -4.073627 0.008881  -0.057292  0.090916
1  2.215400  10.958064  -3.591448 0.001761  -0.01082  0.005386
6  1.379182  10.126250  -5.408379 -0.038044  -0.157831  0.0601
6  0.822331  8.981485  -6.053533 -0.049843  -0.029724  -0.139699
6  0.594947  7.796587  -5.353363 -0.006376  0.048804  -0.079247
1  0.153503  6.930820  -5.853027 -0.007967  0.092262  -0.158675
6  0.984047  7.759860  -4.009378 0.024549  0.060952  0.002439
6  -0.470694  3.330417  -2.524752 0.003845  -0.002438  0.015753
6  -1.069547  2.785403  -3.666610 0.002661  0.025286  -0.033985
1  -1.082958  3.315281  -4.621989 -0.095937  -0.125097  -0.120001
6  -1.656094  1.523548  -3.549287 -0.002154  -0.015527  0.019337
6  -1.643891  0.829769  -2.300442 0.012937  0.025438  0.001784
6  -1.054524  1.377833  -1.163614 0.019761  0.040781  -0.002174
1  -1.047897  0.849814  -0.203942 -0.096234  -0.137013  -0.101399
6  -0.461744  2.641113  -1.292885 0.015626  0.002942  0.055153
8  1.561543  11.289408  -6.130983 0.015668  0.098942  -0.056202
8  0.456576  9.066279  -7.384615 0.021639  -0.003168  0.090942
8  -2.247387  0.943258  -4.633013 -0.002998  -0.004604  -0.002531
8  0.524098  1.466313  6.127027 0.032265  0.096067  -0.060019
8  1.625783  3.699191  7.367660 0.009947  0.001217  0.09884
8  3.425625  5.408669  -0.561990 -0.002001  -0.000334  -0.000576
8  -2.262316  -0.402848  -2.343578 -0.007378  -0.015718  0.001114
8  4.359842  11.883565  4.581877 -0.013198  -0.032925  -0.012938
8  4.349973  13.171875  2.290160 -0.020262  -0.048573  -0.023333
1  0.881467  3.215060  7.771918 0.013367  -0.064337  0.028989
1  1.207540  1.342662  6.812001 -0.028736  -0.093614  -0.039888
1  -2.213160  -0.821066  -1.467846 -0.04001  -0.068055  -0.022459
1  -2.592746  0.075313  -4.347532 -0.027082  -0.015468  -0.068763
1  1.136216  9.585584  -7.853589 0.015135  -0.063454  0.01808
1  0.813799  11.377801  -6.751482 -0.014141  -0.072374  -0.050237
1  4.304140  13.535608  1.388759 0.100665  0.250057  0.098342
1  4.318527  11.302935  5.361665 0.113452  0.237638  0.187213
