ATOMS
23  1.985697  5.996766  -0.225995 0.000862  0.002105  0.001063
7  1.465808  5.248419  1.610420 -0.04157  -0.0414  0.13347
7  2.290065  7.760927  0.765131 0.018782  -0.150556  -0.084709
7  0.372438  3.176203  0.943853 -0.058629  -0.028172  -0.135222
7  2.405861  6.962218  3.064312 0.056496  0.11654  -0.047595
6  0.927127  3.992390  1.833918 -0.012007  -0.116841  -0.027795
6  1.879640  5.765256  2.826772 0.074611  0.045096  0.091101
6  2.574669  7.878644  2.116466 -0.102635  0.036667  -0.105085
6  2.566406  8.977683  0.161527 -0.103998  -0.071368  0.086088
6  1.018977  3.674618  3.252763 0.002352  -0.002202  -0.018136
6  0.641667  2.543634  3.986040 0.050991  0.108117  0.095881
1  0.202166  1.663949  3.509623 0.071264  0.050348  0.192281
6  0.878204  2.562204  5.360574 0.031415  0.044687  0.049909
6  1.433320  3.711168  5.999464 -0.025649  -0.062086  -0.017104
6  1.825580  4.828382  5.261626 -0.057805  -0.122287  -0.028202
1  2.257216  5.700030  5.759513 -0.017428  -0.197207  0.059569
6  1.617996  4.790990  3.878014 -0.026555  0.020385  0.007177
6  3.075879  9.217393  2.388993 0.027932  1.6e-05  -0.001182
6  3.496999  9.844565  3.567916 -0.000879  -0.127736  0.143941
1  3.494779  9.301739  4.519615 -0.132509  -0.194877  0.109255
6  3.921732  11.173875  3.498436 -0.016138  -0.05545  0.070168
6  3.916369  11.875861  2.249636 -0.016321  0.031185  -0.083636
6  3.486498  11.242629  1.080669 -0.002842  0.055867  -0.183121
1  3.476086  11.773358  0.122230 -0.139141  -0.007879  -0.220856
6  3.070730  9.908012  1.160470 0.031595  -0.00292  -0.000456
7  1.450745  7.175121  -1.814962 -0.045533  0.093488  -0.102908
7  0.622139  4.663640  -0.970547 0.070225  0.088753  0.049763
7  2.388096  9.310874  -1.112708 0.055701  0.019868  0.123023
7  0.351398  5.526158  -3.231816 -0.0584  -0.127143  0.045541
6  1.858376  8.484498  -2.008653 0.078562  0.0993  -0.010992
6  0.903995  6.712246  -3.000312 -0.00782  -0.084048  -0.086744
6  0.208646  4.598731  -2.291321 0.016393  -0.027201  0.105378
6  0.219105  3.499215  -0.336637 0.014634  0.075122  -0.08022
6  1.584619  8.875924  -3.385107 -0.028975  0.016219  0.014447
6  1.782759  10.078136  -4.073627 -0.059948  -0.090323  -0.0904
1  2.215400  10.958064  -3.591448 -0.015741  -0.055906  -0.201674
6  1.379182  10.126250  -5.408379 -0.025897  -0.047584  -0.044824
6  0.822331  8.981485  -6.053533 0.032009  0.066503  0.012223
6  0.594947  7.796587  -5.353363 0.051085  0.13991  0.042774
1  0.153503  6.930820  -5.853027 0.073549  0.19151  -0.057944
6  0.984047  7.759860  -4.009378 0.001773  -0.015806  0.007793
6  -0.470694  3.330417  -2.524752 0.001205  -0.012822  0.014137
6  -1.069547  2.785403  -3.666610 0.012575  0.056908  -0.05553
1  -1.082958  3.315281  -4.621989 0.047362  0.125388  -0.02032
6  -1.656094  1.523548  -3.549287 0.002171  0.026761  -0.036632
6  -1.643891  0.829769  -2.300442 0.003527  -0.014189  0.039266
6  -1.054524  1.377833  -1.163614 0.012491  -0.021294  0.077767
1  -1.047897  0.849814  -0.203942 0.043036  0.037515  0.111345
6  -0.461744  2.641113  -1.292885 -0.002438  0.004051  -0.016606
8  1.561543  11.289408  -6.130983 -0.014794  -0.084368  0.048324
8  0.456576  9.066279  -7.384615 0.023291  -0.001322  0.081434
8  -2.247387  0.943258  -4.633013 -0.024389  -0.023512  -0.046091
8  0.524098  1.466313  6.127027 0.022262  0.067807  -0.042988
8  1.625783  3.699191  7.367660 -0.015312  -0.00259  -0.096719
8  3.425625  5.408669  -0.561990 0.000545  0.001439  0.00093
8  -2.262316  -0.402848  -2.343578 -0.022801  -0.049589  0.004939
8  4.359842  11.883565  4.581877 0.033157  0.041617  0.088687
8  4.349973  13.171875  2.290160 0.033165  0.098243  -0.010727
1  0.881467  3.215060  7.771918 -0.004201  0.03959  -0.031215
1  1.207540  1.342662  6.812001 -0.005679  -0.00922  -0.031988
1  -2.213160  -0.821066  -1.467846 -0.038654  -0.075028  -0.00547
1  -2.592746  0.075313  -4.347532 -0.006038  -0.016524  0.003456
1  1.136216  9.585584  -7.853589 -0.005502  -0.032942  0.009129
1  0.813799  11.377801  -6.751482 -0.004222  -0.005788  0.050342
1  4.304140  13.535608  1.388759 0.051692  0.157895  0.0111
1  4.318527  11.302935  5.361665 0.05307  0.091313  0.12822
