ATOMS
23  1.985697  5.996766  -0.225995 -0.002233  0.001021  0.000614
7  1.465808  5.248419  1.610420 0.000246  0.003018  -0.007752
7  2.290065  7.760927  0.765131 -0.002948  -0.008125  -0.002337
7  0.372438  3.176203  0.943853 -0.024062  -0.06682  0.018139
7  2.405861  6.962218  3.064312 0.02229  0.019203  0.068401
6  0.927127  3.992390  1.833918 0.092247  0.118599  0.207871
6  1.879640  5.765256  2.826772 -0.096302  -0.230554  0.006788
6  2.574669  7.878644  2.116466 0.045297  0.201567  -0.14114
6  2.566406  8.977683  0.161527 0.046752  -0.014244  0.241982
6  1.018977  3.674618  3.252763 -0.033313  -0.026832  -0.131981
6  0.641667  2.543634  3.986040 0.000913  -0.02477  0.069605
1  0.202166  1.663949  3.509623 0.009651  0.079204  -0.126181
6  0.878204  2.562204  5.360574 0.00333  0.023493  -0.027503
6  1.433320  3.711168  5.999464 0.002133  0.011884  -0.038501
6  1.825580  4.828382  5.261626 -0.011035  -0.044013  0.060288
1  2.257216  5.700030  5.759513 0.009289  0.056995  -0.13906
6  1.617996  4.790990  3.878014 0.045122  0.119382  -0.045613
6  3.075879  9.217393  2.388993 -0.034241  -0.141046  0.068857
6  3.496999  9.844565  3.567916 0.030197  0.08111  0.018179
1  3.494779  9.301739  4.519615 -0.067946  -0.142522  -0.113374
6  3.921732  11.173875  3.498436 -0.019473  -0.042994  -0.027816
6  3.916369  11.875861  2.249636 -0.020615  -0.048551  -0.024189
6  3.486498  11.242629  1.080669 0.031407  0.060161  0.061167
1  3.476086  11.773358  0.122230 -0.069107  -0.174671  -0.063896
6  3.070730  9.908012  1.160470 -0.035164  -0.015512  -0.15481
7  1.450745  7.175121  -1.814962 0.001415  -0.001396  0.00629
7  0.622139  4.663640  -0.970547 0.003816  0.003137  0.007661
7  2.388096  9.310874  -1.112708 0.01823  0.063058  -0.025948
7  0.351398  5.526158  -3.231816 -0.020555  -0.011752  -0.062241
6  1.858376  8.484498  -2.008653 -0.089379  -0.103423  -0.185433
6  0.903995  6.712246  -3.000312 0.078398  0.206206  -0.006889
6  0.208646  4.598731  -2.291321 -0.044761  -0.177971  0.132484
6  0.219105  3.499215  -0.336637 -0.061247  0.005061  -0.248233
6  1.584619  8.875924  -3.385107 0.042783  0.018769  0.119675
6  1.782759  10.078136  -4.073627 -0.010096  0.028065  -0.063237
1  2.215400  10.958064  -3.591448 0.010594  -0.081022  0.113589
6  1.379182  10.126250  -5.408379 0.001054  -0.024581  0.024371
6  0.822331  8.981485  -6.053533 0.003206  -0.014406  0.037265
6  0.594947  7.796587  -5.353363 0.000228  0.046324  -0.057415
1  0.153503  6.930820  -5.853027 0.010586  -0.063888  0.128597
6  0.984047  7.759860  -4.009378 -0.029103  -0.114429  0.042149
6  -0.470694  3.330417  -2.524752 0.032753  0.106171  -0.065979
6  -1.069547  2.785403  -3.666610 -0.044283  -0.084337  -0.010437
1  -1.082958  3.315281  -4.621989 0.086311  0.114178  0.106011
6  -1.656094  1.523548  -3.549287 0.045525  0.072165  0.035825
6  -1.643891  0.829769  -2.300442 0.017814  0.037866  -0.002397
6  -1.054524  1.377833  -1.163614 -0.048231  -0.071481  -0.046323
1  -1.047897  0.849814  -0.203942 0.099505  0.157241  0.078235
6  -0.461744  2.641113  -1.292885 0.067564  0.056218  0.144413
8  1.561543  11.289408  -6.130983 0.00024  0.008189  -0.004696
8  0.456576  9.066279  -7.384615 -0.001026  0.000765  -0.009788
8  -2.247387  0.943258  -4.633013 -0.010806  -0.015776  -0.01084
8  0.524098  1.466313  6.127027 -0.001204  -0.007913  0.00531
8  1.625783  3.699191  7.367660 -0.000162  -0.000214  0.010172
8  3.425625  5.408669  -0.561990 0.007179  -0.002964  -0.001648
8  -2.262316  -0.402848  -2.343578 -0.003858  -0.012203  0.00746
8  4.359842  11.883565  4.581877 0.004864  0.006403  0.014526
8  4.349973  13.171875  2.290160 0.004991  0.016197  -0.001865
1  0.881467  3.215060  7.771918 0.010979  0.004628  0.034114
1  1.207540  1.342662  6.812001 -0.012411  -0.026748  0.012121
1  -2.213160  -0.821066  -1.467846 -0.035049  -0.062841  -0.014723
1  -2.592746  0.075313  -4.347532 -0.046166  -0.029149  -0.113205
1  1.136216  9.585584  -7.853589 -0.014664  -0.002942  -0.031823
1  0.813799  11.377801  -6.751482 0.007936  0.026238  -0.010432
1  4.304140  13.535608  1.388759 0.009007  0.027009  0.000622
1  4.318527  11.302935  5.361665 0.009727  0.015875  0.023755
