ATOMS
23  1.985697  5.996766  -0.225995 0.001579  -0.000716  -0.000299
7  1.465808  5.248419  1.610420 0.003536  0.013836  -0.024917
7  2.290065  7.760927  0.765131 -0.020354  -0.050279  -0.027727
7  0.372438  3.176203  0.943853 0.00464  0.021953  -0.028224
7  2.405861  6.962218  3.064312 0.001464  0.016366  -0.031755
6  0.927127  3.992390  1.833918 -0.019168  -0.056167  0.039802
6  1.879640  5.765256  2.826772 0.0035  -0.018641  0.073636
6  2.574669  7.878644  2.116466 0.024268  0.044657  0.051872
6  2.566406  8.977683  0.161527 0.024297  0.06827  0.010968
6  1.018977  3.674618  3.252763 0.063138  0.134587  0.011389
6  0.641667  2.543634  3.986040 0.004941  -0.003558  0.028834
1  0.202166  1.663949  3.509623 -0.020694  -0.107346  0.246591
6  0.878204  2.562204  5.360574 -0.094239  -0.153658  -0.098812
6  1.433320  3.711168  5.999464 0.097888  0.167619  0.082054
6  1.825580  4.828382  5.261626 -0.010076  -0.023901  0.013247
1  2.257216  5.700030  5.759513 -0.021175  -0.145411  0.231566
6  1.617996  4.790990  3.878014 -0.052347  -0.076434  -0.108679
6  3.075879  9.217393  2.388993 -0.005772  -0.048952  0.056801
6  3.496999  9.844565  3.567916 -0.015013  -0.039302  -0.011567
1  3.494779  9.301739  4.519615 -0.003496  -0.015214  0.006236
6  3.921732  11.173875  3.498436 0.017162  0.056771  -0.007904
6  3.916369  11.875861  2.249636 0.017235  0.022554  0.052149
6  3.486498  11.242629  1.080669 -0.015032  -0.030342  -0.027268
1  3.476086  11.773358  0.122230 -0.003674  -0.002848  -0.016144
6  3.070730  9.908012  1.160470 -0.006272  0.023089  -0.0712
7  1.450745  7.175121  -1.814962 0.002945  -0.015979  0.024344
7  0.622139  4.663640  -0.970547 0.029597  0.04418  0.022251
7  2.388096  9.310874  -1.112708 0.000968  -0.020007  0.029276
7  0.351398  5.526158  -3.231816 0.005436  -0.008851  0.029181
6  1.858376  8.484498  -2.008653 0.00418  0.057337  -0.054635
6  0.903995  6.712246  -3.000312 -0.018591  0.008999  -0.070125
6  0.208646  4.598731  -2.291321 -0.03165  -0.039099  -0.043211
6  0.219105  3.499215  -0.336637 -0.032496  -0.064029  -0.001587
6  1.584619  8.875924  -3.385107 -0.052432  -0.136206  -0.005878
6  1.782759  10.078136  -4.073627 -0.009574  -0.000535  -0.025589
1  2.215400  10.958064  -3.591448 -0.02369  0.128082  -0.250721
6  1.379182  10.126250  -5.408379 0.099548  0.163951  0.097707
6  0.822331  8.981485  -6.053533 -0.096712  -0.16736  -0.08397
6  0.594947  7.796587  -5.353363 0.005035  0.022298  -0.016475
1  0.153503  6.930820  -5.853027 -0.023449  0.159746  -0.226926
6  0.984047  7.759860  -4.009378 0.063378  0.077543  0.110052
6  -0.470694  3.330417  -2.524752 0.008005  0.051988  -0.060715
6  -1.069547  2.785403  -3.666610 0.007108  0.011317  0.005128
1  -1.082958  3.315281  -4.621989 0.027864  0.044097  0.02055
6  -1.656094  1.523548  -3.549287 -0.013683  -0.033598  0.009987
6  -1.643891  0.829769  -2.300442 -0.020582  -0.018581  -0.040413
6  -1.054524  1.377833  -1.163614 0.01119  0.013563  0.015711
1  -1.047897  0.849814  -0.203942 0.022995  0.029627  0.02892
6  -0.461744  2.641113  -1.292885 0.013737  -0.01518  0.076633
8  1.561543  11.289408  -6.130983 -0.025982  -0.040366  0.00326
8  0.456576  9.066279  -7.384615 0.02742  0.015709  0.03088
8  -2.247387  0.943258  -4.633013 0.003022  0.007933  -0.00306
8  0.524098  1.466313  6.127027 0.026725  0.033363  -0.002069
8  1.625783  3.699191  7.367660 -0.025922  -0.018168  -0.033765
8  3.425625  5.408669  -0.561990 -0.008053  0.003308  0.001847
8  -2.262316  -0.402848  -2.343578 0.006883  0.011277  0.004658
8  4.359842  11.883565  4.581877 -0.005977  -0.012763  -0.009431
8  4.349973  13.171875  2.290160 -0.005907  -0.01465  -0.005879
1  0.881467  3.215060  7.771918 0.105952  0.047403  0.257135
1  1.207540  1.342662  6.812001 -0.121335  -0.207019  0.086358
1  -2.213160  -0.821066  -1.467846 -0.02242  -0.034466  -0.018564
1  -2.592746  0.075313  -4.347532 0.043992  0.024038  0.114231
1  1.136216  9.585584  -7.853589 -0.122495  -0.033556  -0.217705
1  0.813799  11.377801  -6.751482 0.103683  0.243931  -0.092556
1  4.304140  13.535608  1.388759 0.027486  0.067131  0.029658
1  4.318527  11.302935  5.361665 0.027896  0.06086  0.042271
