ATOMS
23  1.985697  5.996766  -0.225995 -0.013356  -0.014332  -0.006028
7  1.465808  5.248419  1.610420 0.026371  0.057211  -0.054477
7  2.290065  7.760927  0.765131 0.018747  0.052029  0.030387
7  0.372438  3.176203  0.943853 -0.033042  -0.096964  0.040506
7  2.405861  6.962218  3.064312 -0.003926  0.00043  -0.033387
6  0.927127  3.992390  1.833918 0.008421  0.048675  -0.062121
6  1.879640  5.765256  2.826772 -0.000348  0.002852  0.023693
6  2.574669  7.878644  2.116466 0.011624  0.029885  0.002208
6  2.566406  8.977683  0.161527 0.008088  0.010136  0.016593
6  1.018977  3.674618  3.252763 -0.017738  -0.015085  -0.046817
6  0.641667  2.543634  3.986040 0.00951  -0.023754  0.024812
1  0.202166  1.663949  3.509623 -0.095917  -0.065597  0.197506
6  0.878204  2.562204  5.360574 0.001068  0.017573  0.019562
6  1.433320  3.711168  5.999464 0.003628  -0.002315  0.00534
6  1.825580  4.828382  5.261626 0.00589  0.009649  0.069678
1  2.257216  5.700030  5.759513 0.043204  -0.039654  0.124402
6  1.617996  4.790990  3.878014 -0.00539  -0.034264  0.040356
6  3.075879  9.217393  2.388993 -0.00388  0.002064  -0.01776
6  3.496999  9.844565  3.567916 -0.014585  -0.025811  -0.033948
1  3.494779  9.301739  4.519615 -0.052203  -0.110005  -0.082851
6  3.921732  11.173875  3.498436 -0.002947  -0.011731  0.005728
6  3.916369  11.875861  2.249636 -0.002935  -0.001762  -0.011097
6  3.486498  11.242629  1.080669 -0.015843  -0.049878  -0.000936
1  3.476086  11.773358  0.122230 -0.054941  -0.1285  -0.043361
6  3.070730  9.908012  1.160470 -0.006688  -0.020296  0.001838
7  1.450745  7.175121  -1.814962 0.012365  -0.008441  0.058612
7  0.622139  4.663640  -0.970547 0.107698  0.139646  0.065826
7  2.388096  9.310874  -1.112708 -0.005252  -0.01941  0.015275
7  0.351398  5.526158  -3.231816 -0.023416  -0.006993  -0.068331
6  1.858376  8.484498  -2.008653 0.015625  0.0076  -0.004318
6  0.903995  6.712246  -3.000312 0.026168  -0.017558  0.045483
6  0.208646  4.598731  -2.291321 0.01898  0.048578  0.019095
6  0.219105  3.499215  -0.336637 0.034878  0.069349  0.043138
6  1.584619  8.875924  -3.385107 -0.024189  0.016782  -0.02387
6  1.782759  10.078136  -4.073627 0.053656  0.023718  -0.033403
1  2.215400  10.958064  -3.591448 -0.259289  0.150023  0.017038
6  1.379182  10.126250  -5.408379 -0.018422  0.007659  0.003908
6  0.822331  8.981485  -6.053533 -0.022201  0.028838  0.008417
6  0.594947  7.796587  -5.353363 0.067381  -0.013671  -0.049848
1  0.153503  6.930820  -5.853027 -0.432944  0.223939  -0.020856
6  0.984047  7.759860  -4.009378 -0.036988  -0.020401  0.008554
6  -0.470694  3.330417  -2.524752 -0.016222  -0.018306  -0.041525
6  -1.069547  2.785403  -3.666610 -0.057213  -0.057901  -0.105684
1  -1.082958  3.315281  -4.621989 -0.215182  -0.277273  -0.226585
6  -1.656094  1.523548  -3.549287 -0.006122  -0.02204  0.019159
6  -1.643891  0.829769  -2.300442 -0.012313  -0.004143  -0.035252
6  -1.054524  1.377833  -1.163614 -0.057031  -0.109153  -0.010159
1  -1.047897  0.849814  -0.203942 -0.20487  -0.339861  -0.133553
6  -0.461744  2.641113  -1.292885 -0.003198  -0.03242  0.03344
8  1.561543  11.289408  -6.130983 -0.000507  -0.029227  0.015359
8  0.456576  9.066279  -7.384615 0.006358  -0.008851  0.003313
8  -2.247387  0.943258  -4.633013 0.032511  0.035641  0.052366
8  0.524098  1.466313  6.127027 0.002574  -0.00296  -0.004184
8  1.625783  3.699191  7.367660 -0.00515  0.003045  -0.048291
8  3.425625  5.408669  -0.561990 -0.001319  0.00219  0.001214
8  -2.262316  -0.402848  -2.343578 0.024112  0.045731  0.006155
8  4.359842  11.883565  4.581877 0.007133  0.013201  0.014392
8  4.349973  13.171875  2.290160 0.009178  0.024919  0.004288
1  0.881467  3.215060  7.771918 -0.002525  0.03024  -0.014698
1  1.207540  1.342662  6.812001 -0.02143  -0.024571  0.014813
1  -2.213160  -0.821066  -1.467846 0.063093  0.108415  0.033637
1  -2.592746  0.075313  -4.347532 -0.005788  0.020018  -0.056162
1  1.136216  9.585584  -7.853589 0.006106  -0.004729  0.007957
1  0.813799  11.377801  -6.751482 0.014105  0.023007  0.007701
1  4.304140  13.535608  1.388759 0.014059  0.040454  0.009791
1  4.318527  11.302935  5.361665 0.014561  0.029514  0.027233
