ATOMS
23  1.985697  5.996766  -0.225995 0.001082  -0.000806  -0.000357
7  1.465808  5.248419  1.610420 -0.069708  0.041246  -0.007562
7  2.290065  7.760927  0.765131 0.080646  -0.007502  -0.004444
7  0.372438  3.176203  0.943853 -0.003864  -0.002915  -0.011586
7  2.405861  6.962218  3.064312 0.002658  0.011347  -0.003755
6  0.927127  3.992390  1.833918 -0.095879  0.050272  -0.002466
6  1.879640  5.765256  2.826772 -0.094268  0.05299  -0.000913
6  2.574669  7.878644  2.116466 0.104927  -0.01637  -0.011719
6  2.566406  8.977683  0.161527 0.105103  -0.018379  -0.008541
6  1.018977  3.674618  3.252763 -0.164839  0.084749  0.00803
6  0.641667  2.543634  3.986040 -0.113825  0.061738  -0.00235
1  0.202166  1.663949  3.509623 -0.09161  0.053927  -0.008286
6  0.878204  2.562204  5.360574 -0.024116  0.023647  -0.017879
6  1.433320  3.711168  5.999464 -0.022548  0.021213  -0.014304
6  1.825580  4.828382  5.261626 -0.111007  0.060996  -0.000589
1  2.257216  5.700030  5.759513 -0.087144  0.050267  -0.002617
6  1.617996  4.790990  3.878014 -0.16437  0.083647  0.007326
6  3.075879  9.217393  2.388993 0.178795  -0.039835  -0.022675
6  3.496999  9.844565  3.567916 0.125085  -0.02055  -0.013071
1  3.494779  9.301739  4.519615 0.104647  -0.012944  -0.008726
6  3.921732  11.173875  3.498436 0.030019  0.01125  0.005587
6  3.916369  11.875861  2.249636 0.030516  0.010815  0.005615
6  3.486498  11.242629  1.080669 0.125911  -0.021763  -0.012305
1  3.476086  11.773358  0.122230 0.106012  -0.014716  -0.008239
6  3.070730  9.908012  1.160470 0.179106  -0.039603  -0.023582
7  1.450745  7.175121  -1.814962 -0.069737  0.014619  0.03975
7  0.622139  4.663640  -0.970547 0.05942  -0.050909  -0.028901
7  2.388096  9.310874  -1.112708 0.002624  0.002507  0.011738
7  0.351398  5.526158  -3.231816 -0.003801  -0.011546  0.003501
6  1.858376  8.484498  -2.008653 -0.094502  0.026363  0.046674
6  0.903995  6.712246  -3.000312 -0.095714  0.023586  0.044907
6  0.208646  4.598731  -2.291321 0.083641  -0.061546  -0.032965
6  0.219105  3.499215  -0.336637 0.083908  -0.059931  -0.036095
6  1.584619  8.875924  -3.385107 -0.164742  0.049319  0.069291
6  1.782759  10.078136  -4.073627 -0.111781  0.031263  0.054061
1  2.215400  10.958064  -3.591448 -0.088714  0.024129  0.046257
6  1.379182  10.126250  -5.408379 -0.02268  -0.000785  0.026255
6  0.822331  8.981485  -6.053533 -0.022906  -0.002899  0.029633
6  0.594947  7.796587  -5.353363 -0.112713  0.029739  0.054543
1  0.153503  6.930820  -5.853027 -0.090099  0.020723  0.050308
6  0.984047  7.759860  -4.009378 -0.164585  0.050352  0.069526
6  -0.470694  3.330417  -2.524752 0.149954  -0.095173  -0.05474
6  -1.069547  2.785403  -3.666610 0.09849  -0.071497  -0.039784
1  -1.082958  3.315281  -4.621989 0.075444  -0.06091  -0.033654
6  -1.656094  1.523548  -3.549287 0.010004  -0.028602  -0.015825
6  -1.643891  0.829769  -2.300442 0.012104  -0.029578  -0.01667
6  -1.054524  1.377833  -1.163614 0.0996  -0.071405  -0.041332
1  -1.047897  0.849814  -0.203942 0.080354  -0.062794  -0.036404
6  -0.461744  2.641113  -1.292885 0.151021  -0.096165  -0.054175
8  1.561543  11.289408  -6.130983 0.106333  -0.046222  -0.01279
8  0.456576  9.066279  -7.384615 0.106182  -0.048197  -0.009037
8  -2.247387  0.943258  -4.633013 -0.113366  0.031787  0.018827
8  0.524098  1.466313  6.127027 0.103947  -0.031896  -0.037634
8  1.625783  3.699191  7.367660 0.107189  -0.03545  -0.033863
8  3.425625  5.408669  -0.561990 0.001426  -0.000135  1.6e-05
8  -2.262316  -0.402848  -2.343578 -0.112882  0.031554  0.018226
8  4.359842  11.883565  4.581877 -0.102063  0.055155  0.030571
8  4.349973  13.171875  2.290160 -0.10115  0.054356  0.030602
1  0.881467  3.215060  7.771918 0.173999  -0.098009  0.014317
1  1.207540  1.342662  6.812001 0.179023  -0.032667  -0.112771
1  -2.213160  -0.821066  -1.467846 -0.135209  0.041236  0.024116
1  -2.592746  0.075313  -4.347532 -0.177942  0.063541  0.037299
1  1.136216  9.585584  -7.853589 0.182236  -0.11286  0.029718
1  0.813799  11.377801  -6.751482 0.173113  -0.038497  -0.092226
1  4.304140  13.535608  1.388759 -0.108194  0.057413  0.032179
1  4.318527  11.302935  5.361665 -0.110078  0.058358  0.032543
