ATOMS
23  1.985697  5.996766  -0.225995 0.003298  0.002762  0.001729
7  1.465808  5.248419  1.610420 0.023422  0.04093  0.048414
7  2.290065  7.760927  0.765131 -0.004585  -0.047344  0.052963
7  0.372438  3.176203  0.943853 -0.057229  -0.136049  0.04745
7  2.405861  6.962218  3.064312 -0.042251  -0.04357  -0.162413
6  0.927127  3.992390  1.833918 0.003858  0.065725  -0.138292
6  1.879640  5.765256  2.826772 -0.009055  -0.085232  0.148349
6  2.574669  7.878644  2.116466 0.060877  0.134635  0.074459
6  2.566406  8.977683  0.161527 -0.066025  -0.141944  -0.086088
6  1.018977  3.674618  3.252763 -0.018647  0.010308  -0.163651
6  0.641667  2.543634  3.986040 0.03492  0.107652  -0.021592
1  0.202166  1.663949  3.509623 0.066017  0.045997  0.062569
6  0.878204  2.562204  5.360574 0.012989  0.025138  0.017677
6  1.433320  3.711168  5.999464 0.01223  0.037572  0.011015
6  1.825580  4.828382  5.261626 0.033753  0.038558  0.071364
1  2.257216  5.700030  5.759513 -0.010126  0.14317  -0.075454
6  1.617996  4.790990  3.878014 -0.04579  -0.127938  0.089703
6  3.075879  9.217393  2.388993 0.055468  0.164942  0.005208
6  3.496999  9.844565  3.567916 0.026056  0.015406  0.110926
1  3.494779  9.301739  4.519615 -0.017069  -0.066861  0.062322
6  3.921732  11.173875  3.498436 -0.002188  -0.021182  0.023172
6  3.916369  11.875861  2.249636 0.003846  -0.008056  0.037154
6  3.486498  11.242629  1.080669 -0.016384  -0.077454  0.046732
1  3.476086  11.773358  0.122230 0.043635  0.053069  0.116439
6  3.070730  9.908012  1.160470 -0.052736  -0.08005  -0.140728
7  1.450745  7.175121  -1.814962 -0.03842  -0.047513  -0.055339
7  0.622139  4.663640  -0.970547 -0.023094  0.006976  -0.074993
7  2.388096  9.310874  -1.112708 0.041175  0.170658  -0.055108
7  0.351398  5.526158  -3.231816 0.072128  0.038443  0.184035
6  1.858376  8.484498  -2.008653 0.013853  -0.087238  0.145627
6  0.903995  6.712246  -3.000312 -0.010521  0.097491  -0.165376
6  0.208646  4.598731  -2.291321 -0.083789  -0.145027  -0.076109
6  0.219105  3.499215  -0.336637 0.076776  0.117956  0.067679
6  1.584619  8.875924  -3.385107 0.043412  -0.020666  0.177861
6  1.782759  10.078136  -4.073627 -0.025524  -0.121185  0.020811
1  2.215400  10.958064  -3.591448 -0.071457  -0.051945  -0.063135
6  1.379182  10.126250  -5.408379 -0.016146  -0.026598  -0.019622
6  0.822331  8.981485  -6.053533 -0.012668  -0.043486  -0.01389
6  0.594947  7.796587  -5.353363 -0.040654  -0.041676  -0.072352
1  0.153503  6.930820  -5.853027 0.010831  -0.161593  0.091451
6  0.984047  7.759860  -4.009378 0.027685  0.152698  -0.092387
6  -0.470694  3.330417  -2.524752 -0.07714  -0.155401  0.013063
6  -1.069547  2.785403  -3.666610 -0.012997  0.003791  -0.082128
1  -1.082958  3.315281  -4.621989 0.03547  0.172804  0.012172
6  -1.656094  1.523548  -3.549287 0.003449  0.027965  -0.026551
6  -1.643891  0.829769  -2.300442 -0.001504  0.018256  -0.030738
6  -1.054524  1.377833  -1.163614 0.041468  0.106407  -0.04874
1  -1.047897  0.849814  -0.203942 -0.015682  0.035674  -0.086309
6  -0.461744  2.641113  -1.292885 0.074783  0.080283  0.131423
8  1.561543  11.289408  -6.130983 0.007162  0.08851  -0.055265
8  0.456576  9.066279  -7.384615 0.015459  -0.001847  0.082649
8  -2.247387  0.943258  -4.633013 0.035298  0.036284  0.059179
8  0.524098  1.466313  6.127027 -0.018273  -0.075015  0.052613
8  1.625783  3.699191  7.367660 -0.004276  -0.001821  -0.077351
8  3.425625  5.408669  -0.561990 0.000443  -0.00054  -0.000272
8  -2.262316  -0.402848  -2.343578 -0.046303  -0.092202  -0.004571
8  4.359842  11.883565  4.581877 -0.031928  -0.054471  -0.074357
8  4.349973  13.171875  2.290160 0.026979  0.07902  0.005363
1  0.881467  3.215060  7.771918 -0.035799  0.046024  -0.080707
1  1.207540  1.342662  6.812001 -0.040978  -0.025919  0.086979
1  -2.213160  -0.821066  -1.467846 -0.005446  -0.026966  0.027454
1  -2.592746  0.075313  -4.347532 0.040064  0.037868  0.069203
1  1.136216  9.585584  -7.853589 0.052251  -0.054589  0.080329
1  0.813799  11.377801  -6.751482 0.035568  0.041712  -0.099358
1  4.304140  13.535608  1.388759 -0.005976  -0.001884  -0.029133
1  4.318527  11.302935  5.361665 -0.002961  0.009151  -0.029797
