ATOMS
23  1.985697  5.996766  -0.225995 0.005102884369693016  -0.015044316669004076  0.012095051537817024
7  1.465808  5.248419  1.610420 0.010455981433041767  0.02456953222448526  -0.003131496774301944
7  2.290065  7.760927  0.765131 0.011404236937749019  -0.007623106896833722  0.017112620594615987
7  0.372438  3.176203  0.943853 0.029003094588307736  -0.003827568433921765  -0.016143584272631118
7  2.405861  6.962218  3.064312 0.014733934313438203  -0.007171062098481291  0.017124430113463603
6  0.927127  3.992390  1.833918 0.0002789029043018941  0.026832307351301984  -0.01218439386424008
6  1.879640  5.765256  2.826772 -0.0025965461758039104  0.01493417726108169  0.007150092664815289
6  2.574669  7.878644  2.116466 0.005590627682147236  0.008885747378380836  0.020919683549039447
6  2.566406  8.977683  0.161527 -0.00786299596317704  -0.004973798841351351  -0.002279536135980669
6  1.018977  3.674618  3.252763 -0.024126829329038785  0.01405531363206935  -0.027618444580682213
6  0.641667  2.543634  3.986040 -0.022640921448449976  0.00657038873948117  -0.012182413257114997
1  0.202166  1.663949  3.509623 -0.028644736558442525  0.023509359058060817  -0.001124679366250933
6  0.878204  2.562204  5.360574 0.0013190587951108777  0.005830919917664812  -0.014060256172690307
6  1.433320  3.711168  5.999464 0.0037563971553728395  0.013392390471451751  -0.025286310872993923
6  1.825580  4.828382  5.261626 0.018084106488266263  -0.004500922866625687  -0.024691078574326494
1  2.257216  5.700030  5.759513 0.050987456566209254  -0.016433650352164025  -0.03376307320910278
6  1.617996  4.790990  3.878014 -0.016982554334309886  -0.006534537413897072  -0.013115975982413852
6  3.075879  9.217393  2.388993 -0.0011234395224651475  0.016387868584453912  0.012239033042910798
6  3.496999  9.844565  3.567916 0.00033288270007802355  -0.01092749155231008  0.0208625573033476
1  3.494779  9.301739  4.519615 0.02764435521532141  -0.020400429589036238  0.01934897411415789
6  3.921732  11.173875  3.498436 0.005087629927633242  -0.003510399467299491  0.028428616798572153
6  3.916369  11.875861  2.249636 -0.023541795614732658  0.001506133790598991  0.028850346363180464
6  3.486498  11.242629  1.080669 -0.040093753070957174  0.009272634669983394  0.020214957094419332
1  3.476086  11.773358  0.122230 -0.05607341160858291  0.0402224353532073  0.0356396849353618
6  3.070730  9.908012  1.160470 -0.019311816601366178  0.006847774124040986  0.007276866255067799
7  1.450745  7.175121  -1.814962 0.005630380404886008  -0.0015904086983842072  -0.0038046001497116498
7  0.622139  4.663640  -0.970547 -0.00751667122526221  -0.005410469185929248  -0.0058879745811176954
7  2.388096  9.310874  -1.112708 -0.02885577826263542  0.013238429021948137  0.014994661644768918
7  0.351398  5.526158  -3.231816 -0.002288752979233454  0.00949153235055377  0.009615342655302169
6  1.858376  8.484498  -2.008653 -0.016833482392600647  0.005072695049217913  0.0005024576575385657
6  0.903995  6.712246  -3.000312 -0.0005344345524555808  0.009347579778006727  0.0020382179305738434
6  0.208646  4.598731  -2.291321 -0.008332893897178945  -0.006843012298990141  0.0013762764037999903
6  0.219105  3.499215  -0.336637 0.00028577901443691705  -0.0002721148722459549  -0.016878628897973195
6  1.584619  8.875924  -3.385107 -0.008091419567478313  -0.004460634431158655  -0.006015505528056021
6  1.782759  10.078136  -4.073627 -0.007390386459587718  -0.01537567465209862  -0.022356527846815685
1  2.215400  10.958064  -3.591448 -0.02728439562029058  -0.00256065209821987  -0.029310003742256854
6  1.379182  10.126250  -5.408379 0.018545683640738064  0.000683972207893727  -0.036812278414682605
6  0.822331  8.981485  -6.053533 0.010239106412849185  -0.008252571755019618  -0.02136139309363596
6  0.594947  7.796587  -5.353363 0.03292846939852707  -0.00466244918936784  -0.007316031758436769
1  0.153503  6.930820  -5.853027 0.040286123924698665  -0.007801227327989451  -0.021114488840384894
6  0.984047  7.759860  -4.009378 0.0019531496916933644  0.0012035130123526153  -0.0003849125594585892
6  -0.470694  3.330417  -2.524752 -0.030722766689035032  0.0103044556362905  -0.015392364895723402
6  -1.069547  2.785403  -3.666610 -0.0481982406753895  0.02253947822443901  -0.01778284907708147
1  -1.082958  3.315281  -4.621989 -0.06737480568243875  0.036893186287834154  -0.00530828419144996
6  -1.656094  1.523548  -3.549287 -0.020978973409609806  0.008673508057652043  -0.006346704703881709
6  -1.643891  0.829769  -2.300442 -0.022650861191151506  0.021320324953568275  0.009522951264630944
6  -1.054524  1.377833  -1.163614 -0.026076043942515417  0.02395071826306528  0.006521314046792536
1  -1.047897  0.849814  -0.203942 -0.0065439143559023775  0.02516684347577058  0.02282063945128943
6  -0.461744  2.641113  -1.292885 -0.0029647200996810712  0.011095091154417931  -0.010890830591511825
8  1.561543  11.289408  -6.130983 0.0021570747722096236  0.018605522879789754  0.001137278063539247
8  0.456576  9.066279  -7.384615 0.011313639374887425  -0.05005608955320924  -0.025911395952248988
8  -2.247387  0.943258  -4.633013 0.036083903193206375  -0.036466802029248416  -0.01464949095716724
8  0.524098  1.466313  6.127027 0.02826076992616711  0.003814751434973745  0.010081255324948975
8  1.625783  3.699191  7.367660 0.03449597032873084  0.033308099851705616  -0.032232532024319846
8  3.425625  5.408669  -0.561990 0.0017772350417018141  -0.027568194448018366  0.007950228309393903
8  -2.262316  -0.402848  -2.343578 0.0018860996576376752  0.003157533911001617  0.043254442103628235
8  4.359842  11.883565  4.581877 0.03404905952746377  -0.033960283518147796  0.02411727894544636
8  4.349973  13.171875  2.290160 -0.027468752540969973  0.0041064880782012494  0.02495307971772442
1  0.881467  3.215060  7.771918 0.0918771246955868  -0.02416312669004657  0.0035533858873297358
1  1.207540  1.342662  6.812001 0.08421312106920621  -0.03395398774713385  -0.05312431420890554
1  -2.213160  -0.821066  -1.467846 -7.3369106719362165e-06  0.04884454875111169  0.06547416177442056
1  -2.592746  0.075313  -4.347532 0.04553885238574309  -0.03973403135937711  -0.014367396388052343
1  1.136216  9.585584  -7.853589 0.03578788361680791  -0.11691516773970899  -0.06269304111687635
1  0.813799  11.377801  -6.751482 0.05787824052435318  -0.02950674341875026  -0.07287475358682069
1  4.304140  13.535608  1.388759 -0.0059506418780141245  -0.01384319280805967  0.016486725441789314
1  4.318527  11.302935  5.361665 0.11260182413037391  -0.06672224619495949  0.003600235190860381
