ATOMS
23  1.985697  5.996766  -0.225995 0.025621952329983228  -0.010754118913467241  -0.0020049228584168733
7  1.465808  5.248419  1.610420 0.02105083813524255  0.008018619477290498  -0.008586952131798057
7  2.290065  7.760927  0.765131 0.04239335322773605  0.005804004421703636  -0.008263641841652576
7  0.372438  3.176203  0.943853 0.11725493985683727  -0.004952366694086691  0.013115492079192973
7  2.405861  6.962218  3.064312 0.003369451165531664  0.018493024241950293  0.00859401566108428
6  0.927127  3.992390  1.833918 0.03159303337646387  0.03792024490503426  0.0007414439168485474
6  1.879640  5.765256  2.826772 0.007244549431388638  0.03671813587095973  -0.0004794077236934803
6  2.574669  7.878644  2.116466 0.038417705949781354  0.0040605550171705015  -0.014998023065648536
6  2.566406  8.977683  0.161527 0.040579327568661346  -0.0037035525837354425  -0.03752897579898428
6  1.018977  3.674618  3.252763 -0.03371706154494931  0.011371245183607059  -0.019428586350192983
6  0.641667  2.543634  3.986040 -0.03925658153928431  0.009329726075755308  -0.033796508491957186
1  0.202166  1.663949  3.509623 -0.02988983933088418  -0.010177691821083907  -0.01027825746392459
6  0.878204  2.562204  5.360574 -0.05633468019508352  0.027546846017808255  -0.015073529328897413
6  1.433320  3.711168  5.999464 -0.004098861841157952  0.024831870389012356  -0.021328326875978187
6  1.825580  4.828382  5.261626 -0.029042069403016554  0.032813993695640434  0.007371069694714535
1  2.257216  5.700030  5.759513 0.015727935954335446  -0.0010090382539096096  0.016555933025920233
6  1.617996  4.790990  3.878014 -0.06430847365792657  0.036856904519048814  -0.00047662964583410403
6  3.075879  9.217393  2.388993 0.032813208449917884  0.004058938195864869  -0.015663743344906056
6  3.496999  9.844565  3.567916 0.033608588919805414  -0.02494563647391233  0.01216383074176851
1  3.494779  9.301739  4.519615 0.07255118709210441  -0.04612382382065247  0.01048688443739309
6  3.921732  11.173875  3.498436 0.039730261875393635  -0.018196594944178527  0.028346406793855576
6  3.916369  11.875861  2.249636 -0.022183638754187364  -0.007453412423842003  0.0142507490062883
6  3.486498  11.242629  1.080669 -0.0037944537093986823  -0.022373361547100307  0.01644491909136477
1  3.476086  11.773358  0.122230 -0.03827276659071499  0.0069631140548881715  0.06487179333534204
6  3.070730  9.908012  1.160470 0.052388775830598346  -0.03295895387568074  -0.04181304613623503
7  1.450745  7.175121  -1.814962 0.006590831993398317  0.018585378624764486  0.04162391360949531
7  0.622139  4.663640  -0.970547 0.02906732752136373  -0.020521869492074726  -0.004149230944473131
7  2.388096  9.310874  -1.112708 -0.009566119457091522  0.013892718869674687  -0.012492911372022651
7  0.351398  5.526158  -3.231816 0.04031076970637983  -0.023218723176780906  -0.0038568421727035816
6  1.858376  8.484498  -2.008653 -0.009932800657263883  -0.02223987860774537  -0.00014497469568458592
6  0.903995  6.712246  -3.000312 0.0066924585242518035  -0.020577358400839515  0.023804953388245287
6  0.208646  4.598731  -2.291321 0.017046981057085398  -0.0036501655884226764  0.05007289732984447
6  0.219105  3.499215  -0.336637 0.06405197558598721  -0.07455211102704504  -0.011024953332195265
6  1.584619  8.875924  -3.385107 -0.01578946619508895  -0.030634167330964406  -0.012847833326455324
6  1.782759  10.078136  -4.073627 0.009575556020021742  -0.021055641326770586  0.021955347785464395
1  2.215400  10.958064  -3.591448 -0.036154791407417744  0.012387971207518956  0.026874654064517348
6  1.379182  10.126250  -5.408379 -0.01866485257108272  0.0013567953805659386  0.017080296876035714
6  0.822331  8.981485  -6.053533 -0.04162421825164861  -0.02375522814653319  0.019608568825557095
6  0.594947  7.796587  -5.353363 0.021446455923676735  -0.07131116620398327  0.011029972579484067
1  0.153503  6.930820  -5.853027 -0.013016823678465766  -0.11484803384486192  0.0965539714943415
6  0.984047  7.759860  -4.009378 -0.018858551598774462  -0.04934451448458729  0.023328055149294757
6  -0.470694  3.330417  -2.524752 0.036447278421273085  0.013068285027879179  -0.01510478876413172
6  -1.069547  2.785403  -3.666610 -0.055662737856698855  0.04762439202326782  0.0096678977531107
1  -1.082958  3.315281  -4.621989 -0.054276961260688074  0.015122144835987877  0.005954037940220104
6  -1.656094  1.523548  -3.549287 -0.05416802545564165  0.04049885022986751  0.005440788628786858
6  -1.643891  0.829769  -2.300442 -0.024371583430300818  0.011500245942969016  -0.005493582054499332
6  -1.054524  1.377833  -1.163614 0.016382532741067806  -0.03136203274797411  -0.016925616356785557
1  -1.047897  0.849814  -0.203942 0.07217822776158897  -0.04904687793639459  -0.015581745046703906
6  -0.461744  2.641113  -1.292885 0.0621108758218791  -0.03500162361043383  -0.014362116313998582
8  1.561543  11.289408  -6.130983 -0.03542162218353271  0.019075997577796638  0.050756172031351535
8  0.456576  9.066279  -7.384615 -0.14152065755999094  -0.0362274058587127  0.0324608358338146
8  -2.247387  0.943258  -4.633013 -0.022212633453818853  0.04391546118486346  -0.05668502982768711
8  0.524098  1.466313  6.127027 -0.09214324449907252  0.02247308277422494  -0.015282683816277424
8  1.625783  3.699191  7.367660 -0.03826607118502638  0.031105649421412064  0.0032325591138020696
8  3.425625  5.408669  -0.561990 0.060447471339088406  -0.0016024869936940285  -0.03045288231191539
8  -2.262316  -0.402848  -2.343578 0.018306550828357245  0.015659261119046773  -0.026680135863353376
8  4.359842  11.883565  4.581877 -0.012055809487687169  0.029313144904732545  0.0252289231486373
8  4.349973  13.171875  2.290160 -0.03459377956666717  0.015847300427239863  0.010608376993944806
1  0.881467  3.215060  7.771918 -0.07527969267236308  0.09404126654859972  0.008072653667491669
1  1.207540  1.342662  6.812001 -0.13443532226153965  0.04473881948655608  0.03145800350257833
1  -2.213160  -0.821066  -1.467846 0.04976343427609429  -0.05254873443970299  -0.06177926327334148
1  -2.592746  0.075313  -4.347532 0.0504069455770421  -0.020324859492187042  -0.17195450546902127
1  1.136216  9.585584  -7.853589 -0.22061960556122828  -0.016375714241712226  -0.05787998937139946
1  0.813799  11.377801  -6.751482 -0.02559808095310974  0.01330812523600752  0.038257447240278665
1  4.304140  13.535608  1.388759 0.023062431361454225  0.014712031541834975  0.007344939034220987
1  4.318527  11.302935  5.361665 0.07148275267078452  0.04355682640360043  0.04038809774102676
