ATOMS
23  1.985697  5.996766  -0.225995 -0.023709319114642226  -0.014885677463723063  0.03117137509785066
7  1.465808  5.248419  1.610420 -0.010815491762014235  0.02438835314970383  0.01327731455261246
7  2.290065  7.760927  0.765131 -0.02285416890272949  -0.015228718859113947  0.062159463539009384
7  0.372438  3.176203  0.943853 -0.018509552996271078  0.029871562000920417  -0.023068356448405485
7  2.405861  6.962218  3.064312 -0.043664529726307605  0.020334490792924053  0.04996635856290027
6  0.927127  3.992390  1.833918 -0.005308380953720122  0.010135785974915296  -0.04385219825341618
6  1.879640  5.765256  2.826772 -0.0305417438415372  0.009211179093701748  0.03199735054482579
6  2.574669  7.878644  2.116466 -0.0409858103062449  0.0488517467579442  0.039092299534286376
6  2.566406  8.977683  0.161527 -0.007895524371736918  -0.03726998135540532  0.03560691375030863
6  1.018977  3.674618  3.252763 0.044251827971151715  -0.05302706191999869  -0.0033477216336635683
6  0.641667  2.543634  3.986040 0.009025844801373705  -0.03523709942012426  0.0007260226494414368
1  0.202166  1.663949  3.509623 -0.006473202906109957  -0.033973975688514124  0.02332606557718099
6  0.878204  2.562204  5.360574 0.0003322937001114492  -0.016019383676786698  0.003053915432725823
6  1.433320  3.711168  5.999464 0.01770521213277637  -0.015720055635871383  0.011796140568815693
6  1.825580  4.828382  5.261626 0.0374936553657007  -0.02158694740274683  -0.0065883334151331215
1  2.257216  5.700030  5.759513 0.09437228296959797  -0.011165549974035452  -0.03634255356877478
6  1.617996  4.790990  3.878014 0.01609616140700669  -0.05101362097606279  -0.015739715229552767
6  3.075879  9.217393  2.388993 -0.043441870416477374  0.044020053841298035  0.011377181135129765
6  3.496999  9.844565  3.567916 -0.03166655628093375  0.015786529394262845  0.00395914465191814
1  3.494779  9.301739  4.519615 0.02574436826304756  0.016082359631408562  -0.007347207614998893
6  3.921732  11.173875  3.498436 -0.020705133745203885  -0.0056213168983740335  -0.01141470021647055
6  3.916369  11.875861  2.249636 0.008223230185908157  -0.0032226359855280075  -0.03214145344278309
6  3.486498  11.242629  1.080669 0.04481131214230461  -0.014575936028028183  -0.03563898566172653
1  3.476086  11.773358  0.122230 0.06647069743469358  -0.05076278211161556  -0.03786965283745765
6  3.070730  9.908012  1.160470 -0.010484804018465294  -0.007534534268387686  -0.025734276837432197
7  1.450745  7.175121  -1.814962 -0.0036957329535865693  -0.0033861438919690163  0.0037395350587000453
7  0.622139  4.663640  -0.970547 -0.012412914793450545  -0.0192449229773387  -0.023175939178838062
7  2.388096  9.310874  -1.112708 0.020092156239772445  -0.026991647322507355  0.001485657674837459
7  0.351398  5.526158  -3.231816 -0.07231665528784738  0.07448957046456409  0.034098852945631856
6  1.858376  8.484498  -2.008653 0.018936612943539953  -0.003145719911649101  0.007067830932007938
6  0.903995  6.712246  -3.000312 -0.042476657460562096  0.0361337121513987  0.006007556550529311
6  0.208646  4.598731  -2.291321 -0.035741815557134494  0.043750040783960026  -0.01007472025427374
6  0.219105  3.499215  -0.336637 -0.03368306156978382  -0.003945827592946645  -0.015500528940644808
6  1.584619  8.875924  -3.385107 0.04811479332384208  0.010038155344869725  -0.00816290599659833
6  1.782759  10.078136  -4.073627 0.03735785006547848  0.005155195714236617  -0.037985448378573525
1  2.215400  10.958064  -3.591448 0.052209296120641804  0.0031909964806377815  -0.046823023399041805
6  1.379182  10.126250  -5.408379 0.038904437465426475  0.02158436835268756  -0.06852841883831096
6  0.822331  8.981485  -6.053533 -0.008551974096384226  0.018428810491138772  -0.022078593459013453
6  0.594947  7.796587  -5.353363 -0.003735400926520668  0.04566718700272979  0.002083886375331605
1  0.153503  6.930820  -5.853027 -0.05635029087740613  0.03270644005397011  0.06705959194644792
6  0.984047  7.759860  -4.009378 -0.010718664797100676  0.04408139478641172  0.015589167859231966
6  -0.470694  3.330417  -2.524752 -0.026889399858359225  0.022456329058399917  -0.03442657538869189
6  -1.069547  2.785403  -3.666610 -0.007426588889291387  0.02551983171163648  -0.051220928320050874
1  -1.082958  3.315281  -4.621989 -0.05623012436359178  -0.027937825495913133  -0.08526710199003808
6  -1.656094  1.523548  -3.549287 0.006689901585184721  -0.008631168677930281  -0.0012419756136241719
6  -1.643891  0.829769  -2.300442 0.027782018057592714  -0.006263471010737856  0.012775344930685292
6  -1.054524  1.377833  -1.163614 0.00912356206525648  0.032653548236662645  0.011067033858761285
1  -1.047897  0.849814  -0.203942 0.028296448764781396  0.004236107144150424  0.03130048957308832
6  -0.461744  2.641113  -1.292885 -0.046341181118633425  0.010653509469329477  -0.05628361824524694
8  1.561543  11.289408  -6.130983 0.0951286966138574  0.00981350352132392  -0.08371086773162216
8  0.456576  9.066279  -7.384615 0.026766561577804656  -0.028748233946421325  -0.04685837563038475
8  -2.247387  0.943258  -4.633013 0.022788766422487578  -0.0515916258385172  0.03431147387475115
8  0.524098  1.466313  6.127027 0.07255023593693208  -0.024953466897093792  0.031373504369383895
8  1.625783  3.699191  7.367660 0.08601724941275606  -0.041773314592943554  0.01170775044496272
8  3.425625  5.408669  -0.561990 -0.005301713228857941  -0.03779267583679201  0.02928146932733965
8  -2.262316  -0.402848  -2.343578 0.0005002587694163452  0.026025732258006248  0.03848694296885023
8  4.359842  11.883565  4.581877 -0.05563519151412388  -0.020515598171202385  -0.005867881199499225
8  4.349973  13.171875  2.290160 -0.008620876724867147  0.008650889337351511  -0.004213647117447777
1  0.881467  3.215060  7.771918 0.022773225511623665  0.09385805669810277  0.057069707482973776
1  1.207540  1.342662  6.812001 0.056633094990356236  0.045869959559384395  0.06003020792252264
1  -2.213160  -0.821066  -1.467846 0.11803067677292498  0.035299271690699  0.03720112042629413
1  -2.592746  0.075313  -4.347532 -0.07810587184982827  0.019810315006935274  0.13387096797453124
1  1.136216  9.585584  -7.853589 0.005153743497073778  0.01168371104008141  -0.033086278183046394
1  0.813799  11.377801  -6.751482 0.05729077456628855  0.0334409135195295  -0.03641311321826146
1  4.304140  13.535608  1.388759 -0.007799012745928691  0.06827438966188398  0.020574146224317243
1  4.318527  11.302935  5.361665 -0.06216577234411784  -0.027411956573610403  -0.011702560390104167
